<pdos>
<nspin>1</nspin>
<norbitals>26</norbitals>
<fermi_energy units="eV"> -0.365089246E+01</fermi_energy>
<energy_values units="eV">
 -0.149999840E+02
 -0.149398638E+02
 -0.148797436E+02
 -0.148196234E+02
 -0.147595033E+02
 -0.146993831E+02
 -0.146392629E+02
 -0.145791427E+02
 -0.145190226E+02
 -0.144589024E+02
 -0.143987822E+02
 -0.143386620E+02
 -0.142785419E+02
 -0.142184217E+02
 -0.141583015E+02
 -0.140981813E+02
 -0.140380611E+02
 -0.139779410E+02
 -0.139178208E+02
 -0.138577006E+02
 -0.137975804E+02
 -0.137374603E+02
 -0.136773401E+02
 -0.136172199E+02
 -0.135570997E+02
 -0.134969796E+02
 -0.134368594E+02
 -0.133767392E+02
 -0.133166190E+02
 -0.132564989E+02
 -0.131963787E+02
 -0.131362585E+02
 -0.130761383E+02
 -0.130160182E+02
 -0.129558980E+02
 -0.128957778E+02
 -0.128356576E+02
 -0.127755374E+02
 -0.127154173E+02
 -0.126552971E+02
 -0.125951769E+02
 -0.125350567E+02
 -0.124749366E+02
 -0.124148164E+02
 -0.123546962E+02
 -0.122945760E+02
 -0.122344559E+02
 -0.121743357E+02
 -0.121142155E+02
 -0.120540953E+02
 -0.119939752E+02
 -0.119338550E+02
 -0.118737348E+02
 -0.118136146E+02
 -0.117534945E+02
 -0.116933743E+02
 -0.116332541E+02
 -0.115731339E+02
 -0.115130137E+02
 -0.114528936E+02
 -0.113927734E+02
 -0.113326532E+02
 -0.112725330E+02
 -0.112124129E+02
 -0.111522927E+02
 -0.110921725E+02
 -0.110320523E+02
 -0.109719322E+02
 -0.109118120E+02
 -0.108516918E+02
 -0.107915716E+02
 -0.107314515E+02
 -0.106713313E+02
 -0.106112111E+02
 -0.105510909E+02
 -0.104909708E+02
 -0.104308506E+02
 -0.103707304E+02
 -0.103106102E+02
 -0.102504900E+02
 -0.101903699E+02
 -0.101302497E+02
 -0.100701295E+02
 -0.100100093E+02
 -0.994988917E+01
 -0.988976899E+01
 -0.982964881E+01
 -0.976952864E+01
 -0.970940846E+01
 -0.964928828E+01
 -0.958916811E+01
 -0.952904793E+01
 -0.946892776E+01
 -0.940880758E+01
 -0.934868740E+01
 -0.928856723E+01
 -0.922844705E+01
 -0.916832687E+01
 -0.910820670E+01
 -0.904808652E+01
 -0.898796635E+01
 -0.892784617E+01
 -0.886772599E+01
 -0.880760582E+01
 -0.874748564E+01
 -0.868736546E+01
 -0.862724529E+01
 -0.856712511E+01
 -0.850700494E+01
 -0.844688476E+01
 -0.838676458E+01
 -0.832664441E+01
 -0.826652423E+01
 -0.820640405E+01
 -0.814628388E+01
 -0.808616370E+01
 -0.802604353E+01
 -0.796592335E+01
 -0.790580317E+01
 -0.784568300E+01
 -0.778556282E+01
 -0.772544265E+01
 -0.766532247E+01
 -0.760520229E+01
 -0.754508212E+01
 -0.748496194E+01
 -0.742484176E+01
 -0.736472159E+01
 -0.730460141E+01
 -0.724448124E+01
 -0.718436106E+01
 -0.712424088E+01
 -0.706412071E+01
 -0.700400053E+01
 -0.694388035E+01
 -0.688376018E+01
 -0.682364000E+01
 -0.676351983E+01
 -0.670339965E+01
 -0.664327947E+01
 -0.658315930E+01
 -0.652303912E+01
 -0.646291894E+01
 -0.640279877E+01
 -0.634267859E+01
 -0.628255842E+01
 -0.622243824E+01
 -0.616231806E+01
 -0.610219789E+01
 -0.604207771E+01
 -0.598195753E+01
 -0.592183736E+01
 -0.586171718E+01
 -0.580159701E+01
 -0.574147683E+01
 -0.568135665E+01
 -0.562123648E+01
 -0.556111630E+01
 -0.550099612E+01
 -0.544087595E+01
 -0.538075577E+01
 -0.532063560E+01
 -0.526051542E+01
 -0.520039524E+01
 -0.514027507E+01
 -0.508015489E+01
 -0.502003471E+01
 -0.495991454E+01
 -0.489979436E+01
 -0.483967419E+01
 -0.477955401E+01
 -0.471943383E+01
 -0.465931366E+01
 -0.459919348E+01
 -0.453907331E+01
 -0.447895313E+01
 -0.441883295E+01
 -0.435871278E+01
 -0.429859260E+01
 -0.423847242E+01
 -0.417835225E+01
 -0.411823207E+01
 -0.405811190E+01
 -0.399799172E+01
 -0.393787154E+01
 -0.387775137E+01
 -0.381763119E+01
 -0.375751101E+01
 -0.369739084E+01
 -0.363727066E+01
 -0.357715049E+01
 -0.351703031E+01
 -0.345691013E+01
 -0.339678996E+01
 -0.333666978E+01
 -0.327654960E+01
 -0.321642943E+01
 -0.315630925E+01
 -0.309618908E+01
 -0.303606890E+01
 -0.297594872E+01
 -0.291582855E+01
 -0.285570837E+01
 -0.279558819E+01
 -0.273546802E+01
 -0.267534784E+01
 -0.261522767E+01
 -0.255510749E+01
 -0.249498731E+01
 -0.243486714E+01
 -0.237474696E+01
 -0.231462678E+01
 -0.225450661E+01
 -0.219438643E+01
 -0.213426626E+01
 -0.207414608E+01
 -0.201402590E+01
 -0.195390573E+01
 -0.189378555E+01
 -0.183366537E+01
 -0.177354520E+01
 -0.171342502E+01
 -0.165330485E+01
 -0.159318467E+01
 -0.153306449E+01
 -0.147294432E+01
 -0.141282414E+01
 -0.135270397E+01
 -0.129258379E+01
 -0.123246361E+01
 -0.117234344E+01
 -0.111222326E+01
 -0.105210308E+01
 -0.991982908E+00
 -0.931862732E+00
 -0.871742555E+00
 -0.811622379E+00
 -0.751502203E+00
 -0.691382027E+00
 -0.631261850E+00
 -0.571141674E+00
 -0.511021498E+00
 -0.450901322E+00
 -0.390781145E+00
 -0.330660969E+00
 -0.270540793E+00
 -0.210420617E+00
 -0.150300441E+00
 -0.901802643E-01
 -0.300600881E-01
  0.300600881E-01
  0.901802643E-01
  0.150300441E+00
  0.210420617E+00
  0.270540793E+00
  0.330660969E+00
  0.390781145E+00
  0.450901322E+00
  0.511021498E+00
  0.571141674E+00
  0.631261850E+00
  0.691382027E+00
  0.751502203E+00
  0.811622379E+00
  0.871742555E+00
  0.931862732E+00
  0.991982908E+00
  0.105210308E+01
  0.111222326E+01
  0.117234344E+01
  0.123246361E+01
  0.129258379E+01
  0.135270397E+01
  0.141282414E+01
  0.147294432E+01
  0.153306449E+01
  0.159318467E+01
  0.165330485E+01
  0.171342502E+01
  0.177354520E+01
  0.183366537E+01
  0.189378555E+01
  0.195390573E+01
  0.201402590E+01
  0.207414608E+01
  0.213426626E+01
  0.219438643E+01
  0.225450661E+01
  0.231462678E+01
  0.237474696E+01
  0.243486714E+01
  0.249498731E+01
  0.255510749E+01
  0.261522767E+01
  0.267534784E+01
  0.273546802E+01
  0.279558819E+01
  0.285570837E+01
  0.291582855E+01
  0.297594872E+01
  0.303606890E+01
  0.309618908E+01
  0.315630925E+01
  0.321642943E+01
  0.327654960E+01
  0.333666978E+01
  0.339678996E+01
  0.345691013E+01
  0.351703031E+01
  0.357715049E+01
  0.363727066E+01
  0.369739084E+01
  0.375751101E+01
  0.381763119E+01
  0.387775137E+01
  0.393787154E+01
  0.399799172E+01
  0.405811190E+01
  0.411823207E+01
  0.417835225E+01
  0.423847242E+01
  0.429859260E+01
  0.435871278E+01
  0.441883295E+01
  0.447895313E+01
  0.453907331E+01
  0.459919348E+01
  0.465931366E+01
  0.471943383E+01
  0.477955401E+01
  0.483967419E+01
  0.489979436E+01
  0.495991454E+01
  0.502003471E+01
  0.508015489E+01
  0.514027507E+01
  0.520039524E+01
  0.526051542E+01
  0.532063560E+01
  0.538075577E+01
  0.544087595E+01
  0.550099612E+01
  0.556111630E+01
  0.562123648E+01
  0.568135665E+01
  0.574147683E+01
  0.580159701E+01
  0.586171718E+01
  0.592183736E+01
  0.598195753E+01
  0.604207771E+01
  0.610219789E+01
  0.616231806E+01
  0.622243824E+01
  0.628255842E+01
  0.634267859E+01
  0.640279877E+01
  0.646291894E+01
  0.652303912E+01
  0.658315930E+01
  0.664327947E+01
  0.670339965E+01
  0.676351983E+01
  0.682364000E+01
  0.688376018E+01
  0.694388035E+01
  0.700400053E+01
  0.706412071E+01
  0.712424088E+01
  0.718436106E+01
  0.724448124E+01
  0.730460141E+01
  0.736472159E+01
  0.742484176E+01
  0.748496194E+01
  0.754508212E+01
  0.760520229E+01
  0.766532247E+01
  0.772544265E+01
  0.778556282E+01
  0.784568300E+01
  0.790580317E+01
  0.796592335E+01
  0.802604353E+01
  0.808616370E+01
  0.814628388E+01
  0.820640405E+01
  0.826652423E+01
  0.832664441E+01
  0.838676458E+01
  0.844688476E+01
  0.850700494E+01
  0.856712511E+01
  0.862724529E+01
  0.868736546E+01
  0.874748564E+01
  0.880760582E+01
  0.886772599E+01
  0.892784617E+01
  0.898796635E+01
  0.904808652E+01
  0.910820670E+01
  0.916832687E+01
  0.922844705E+01
  0.928856723E+01
  0.934868740E+01
  0.940880758E+01
  0.946892776E+01
  0.952904793E+01
  0.958916811E+01
  0.964928828E+01
  0.970940846E+01
  0.976952864E+01
  0.982964881E+01
  0.988976899E+01
  0.994988917E+01
  0.100100093E+02
  0.100701295E+02
  0.101302497E+02
  0.101903699E+02
  0.102504900E+02
  0.103106102E+02
  0.103707304E+02
  0.104308506E+02
  0.104909708E+02
  0.105510909E+02
  0.106112111E+02
  0.106713313E+02
  0.107314515E+02
  0.107915716E+02
  0.108516918E+02
  0.109118120E+02
  0.109719322E+02
  0.110320523E+02
  0.110921725E+02
  0.111522927E+02
  0.112124129E+02
  0.112725330E+02
  0.113326532E+02
  0.113927734E+02
  0.114528936E+02
  0.115130137E+02
  0.115731339E+02
  0.116332541E+02
  0.116933743E+02
  0.117534945E+02
  0.118136146E+02
  0.118737348E+02
  0.119338550E+02
  0.119939752E+02
  0.120540953E+02
  0.121142155E+02
  0.121743357E+02
  0.122344559E+02
  0.122945760E+02
  0.123546962E+02
  0.124148164E+02
  0.124749366E+02
  0.125350567E+02
  0.125951769E+02
  0.126552971E+02
  0.127154173E+02
  0.127755374E+02
  0.128356576E+02
  0.128957778E+02
  0.129558980E+02
  0.130160182E+02
  0.130761383E+02
  0.131362585E+02
  0.131963787E+02
  0.132564989E+02
  0.133166190E+02
  0.133767392E+02
  0.134368594E+02
  0.134969796E+02
  0.135570997E+02
  0.136172199E+02
  0.136773401E+02
  0.137374603E+02
  0.137975804E+02
  0.138577006E+02
  0.139178208E+02
  0.139779410E+02
  0.140380611E+02
  0.140981813E+02
  0.141583015E+02
  0.142184217E+02
  0.142785419E+02
  0.143386620E+02
  0.143987822E+02
  0.144589024E+02
  0.145190226E+02
  0.145791427E+02
  0.146392629E+02
  0.146993831E+02
  0.147595033E+02
  0.148196234E+02
  0.148797436E+02
  0.149398638E+02
  0.149999840E+02
</energy_values>
<orbital 
 index="                        1" 
 atom_index="                        1" 
 species="C" 
 Z="                        6" 
 position="  -0.000920   0.000531  18.331131" 
 n="                        2" 
 l="                        0" 
 m="                        0" 
 z="                        1" 
 P="false" 
>
<data>
  0.109879735E-01
  0.103652417E-01
  0.104943127E-01
  0.103227874E-01
  0.960093861E-02
  0.953220159E-02
  0.963910061E-02
  0.899104458E-02
  0.872955105E-02
  0.879291845E-02
  0.848036903E-02
  0.814420766E-02
  0.793244514E-02
  0.786398118E-02
  0.766653648E-02
  0.739661820E-02
  0.722063147E-02
  0.714428526E-02
  0.728493383E-02
  0.692055267E-02
  0.651227013E-02
  0.699629524E-02
  0.690248851E-02
  0.613292012E-02
  0.634847179E-02
  0.670639340E-02
  0.620257239E-02
  0.579655345E-02
  0.602266779E-02
  0.625463153E-02
  0.583997913E-02
  0.533261296E-02
  0.561913956E-02
  0.585492072E-02
  0.544599646E-02
  0.518895546E-02
  0.505957859E-02
  0.506299455E-02
  0.548557336E-02
  0.517136538E-02
  0.419525336E-02
  0.454233392E-02
  0.541165015E-02
  0.474984593E-02
  0.395850066E-02
  0.430136161E-02
  0.452941768E-02
  0.438004828E-02
  0.430841315E-02
  0.386710402E-02
  0.354550312E-02
  0.417856752E-02
  0.435951979E-02
  0.343517936E-02
  0.314867996E-02
  0.377397956E-02
  0.386001216E-02
  0.332645637E-02
  0.311124011E-02
  0.313944447E-02
  0.322088642E-02
  0.332926960E-02
  0.302224691E-02
  0.259029281E-02
  0.276653923E-02
  0.307553021E-02
  0.275785107E-02
  0.235826573E-02
  0.246052556E-02
  0.254202350E-02
  0.238548757E-02
  0.231225027E-02
  0.218466160E-02
  0.197256531E-02
  0.201699058E-02
  0.211937478E-02
  0.187489182E-02
  0.161446670E-02
  0.163371097E-02
  0.165413482E-02
  0.151897864E-02
  0.134479323E-02
  0.116993438E-02
  0.103737716E-02
  0.101177121E-02
  0.967739944E-03
  0.778084284E-03
  0.633829343E-03
  0.632553817E-03
  0.641334550E-03
  0.571437741E-03
  0.455595059E-03
  0.367224814E-03
  0.368022689E-03
  0.402264525E-03
  0.331221502E-03
  0.214589678E-03
  0.198514617E-03
  0.231026004E-03
  0.205373168E-03
  0.140510607E-03
  0.102223935E-03
  0.974498732E-04
  0.981461047E-04
  0.778357629E-04
  0.455905776E-04
  0.252413732E-04
  0.167806459E-04
  0.195115222E-04
  0.120624815E-04
 -0.169467211E-04
 -0.297359380E-04
 -0.153990785E-04
 -0.194543812E-04
 -0.420382723E-04
 -0.424433130E-04
 -0.362203892E-04
 -0.442390634E-04
 -0.458403452E-04
 -0.444531214E-04
 -0.491727343E-04
 -0.461957283E-04
 -0.428323344E-04
 -0.455662328E-04
 -0.438585468E-04
 -0.396752375E-04
 -0.378073693E-04
 -0.362611151E-04
 -0.332399431E-04
 -0.291632593E-04
 -0.267420806E-04
 -0.235188837E-04
 -0.195909482E-04
 -0.164339367E-04
 -0.128941066E-04
 -0.938117829E-05
 -0.610020539E-05
 -0.321848247E-05
 -0.125448513E-05
 -0.322875978E-06
 -0.463382911E-07
  0.152878685E-08
  0.576816905E-08
  0.584444979E-08
  0.647430493E-08
  0.719909033E-08
  0.719634148E-08
  0.709171891E-08
  0.803782242E-08
  0.982440499E-08
  0.104782269E-07
  0.901456989E-08
  0.760628097E-08
  0.762711717E-08
  0.670348148E-08
  0.486915532E-08
  0.453605017E-08
  0.509619430E-08
  0.462187818E-08
  0.350880607E-08
  0.321273020E-08
  0.355114062E-08
  0.342932794E-08
  0.272047919E-08
  0.233460237E-08
  0.249381039E-08
  0.254865849E-08
  0.213173345E-08
  0.172293205E-08
  0.176133637E-08
  0.185763304E-08
  0.162550075E-08
  0.129935593E-08
  0.121882714E-08
  0.132133029E-08
  0.121447704E-08
  0.915277754E-09
  0.847146408E-09
  0.917214293E-09
  0.806447482E-09
  0.622422003E-09
  0.560651617E-09
  0.544618602E-09
  0.478819545E-09
  0.363193919E-09
  0.270331951E-09
  0.231344356E-09
  0.189814864E-09
  0.101294677E-09
  0.446124632E-10
  0.806200051E-10
  0.176125555E-09
  0.240134000E-09
  0.281774809E-09
  0.376805661E-09
  0.521416751E-09
  0.635841425E-09
  0.674493533E-09
  0.743224839E-09
  0.990221460E-09
  0.119744091E-08
  0.115254539E-08
  0.124731347E-08
  0.167645476E-08
  0.195970171E-08
  0.190984800E-08
  0.199524677E-08
  0.261753333E-08
  0.322953946E-08
  0.319057940E-08
  0.317561166E-08
  0.418988520E-08
  0.551047249E-08
  0.559090023E-08
  0.573633321E-08
  0.799117643E-08
  0.109398487E-07
  0.134723548E-07
  0.165429489E-07
  0.185408650E-07
  0.177637087E-07
  0.153054976E-07
  0.128672417E-07
  0.115803727E-07
  0.114363085E-07
  0.114560351E-07
  0.107657077E-07
  0.973722967E-08
  0.936996452E-08
  0.979165997E-08
  0.997810000E-08
  0.949693380E-08
  0.864265475E-08
  0.841021095E-08
  0.907402236E-08
  0.929371356E-08
  0.881534065E-08
  0.819943627E-08
  0.781425584E-08
  0.842589438E-08
  0.910890862E-08
  0.846817206E-08
  0.773524366E-08
  0.772452192E-08
  0.786729949E-08
  0.854976724E-08
  0.877910541E-08
  0.763329887E-08
  0.705517126E-08
  0.782186328E-08
  0.833535897E-08
  0.829610701E-08
  0.802762000E-08
  0.731920238E-08
  0.691639348E-08
  0.786185161E-08
  0.881353285E-08
  0.803642082E-08
  0.705370308E-08
  0.720113208E-08
  0.751093143E-08
  0.787365563E-08
  0.856545914E-08
  0.804009659E-08
  0.672083320E-08
  0.675128443E-08
  0.804688954E-08
  0.859298401E-08
  0.795610628E-08
  0.741835886E-08
  0.715709933E-08
  0.700849109E-08
  0.778770715E-08
  0.901102160E-08
  0.832562021E-08
  0.675129825E-08
  0.683702456E-08
  0.789452171E-08
  0.840360706E-08
  0.846552078E-08
  0.828301293E-08
  0.738121704E-08
  0.675942032E-08
  0.770407778E-08
  0.934325530E-08
  0.916818687E-08
  0.758545558E-08
  0.731645966E-08
  0.787358142E-08
  0.826632150E-08
  0.912158910E-08
  0.977207264E-08
  0.854776831E-08
  0.712676749E-08
  0.794871403E-08
  0.974611018E-08
  0.103102823E-07
  0.948333714E-08
  0.899891584E-08
  0.879562766E-08
  0.866888850E-08
  0.101782740E-07
  0.121130071E-07
  0.113115623E-07
  0.919825869E-08
  0.981713269E-08
  0.434558111E-07
  0.143212046E-05
  0.317854634E-04
  0.366588687E-03
  0.223306132E-02
  0.750887181E-02
  0.151132043E-01
  0.206347023E-01
  0.224502919E-01
  0.228077556E-01
  0.225944312E-01
  0.217814217E-01
  0.220625507E-01
  0.222918157E-01
  0.208509564E-01
  0.201925712E-01
  0.214120189E-01
  0.215175009E-01
  0.196016423E-01
  0.185788250E-01
  0.201064586E-01
  0.216134887E-01
  0.199903268E-01
  0.165567128E-01
  0.145238305E-01
  0.150351284E-01
  0.157661894E-01
  0.143447339E-01
  0.117791031E-01
  0.997926894E-02
  0.104013641E-01
  0.121930185E-01
  0.122943002E-01
  0.105744030E-01
  0.894269416E-02
  0.768094062E-02
  0.755955004E-02
  0.941282176E-02
  0.108340600E-01
  0.958610635E-02
  0.696823565E-02
  0.533348452E-02
  0.575637022E-02
  0.786120126E-02
  0.926071463E-02
  0.803961921E-02
  0.601614868E-02
  0.518466178E-02
  0.531462754E-02
  0.569591389E-02
  0.627926074E-02
  0.673085863E-02
  0.635174272E-02
  0.576405815E-02
  0.548528983E-02
  0.480247130E-02
  0.393957079E-02
  0.447531356E-02
  0.587505557E-02
  0.639776768E-02
  0.615409227E-02
  0.541991662E-02
  0.403952758E-02
  0.309483784E-02
  0.376015740E-02
  0.538933171E-02
  0.648001471E-02
  0.671519608E-02
  0.599732431E-02
  0.420449150E-02
  0.263444587E-02
  0.282169824E-02
  0.511378535E-02
  0.773848567E-02
  0.788956674E-02
  0.545876166E-02
  0.324232830E-02
  0.312758459E-02
  0.429976861E-02
  0.554780587E-02
  0.655586462E-02
  0.690513392E-02
  0.608939419E-02
  0.437597637E-02
  0.335797922E-02
  0.398945524E-02
  0.549308107E-02
  0.691101615E-02
  0.918227060E-02
  0.143424421E-01
  0.200166687E-01
  0.209763678E-01
  0.184172502E-01
  0.169202899E-01
  0.169502895E-01
  0.163878699E-01
  0.146275581E-01
  0.130255199E-01
  0.125017730E-01
  0.123414180E-01
  0.128283774E-01
  0.134982202E-01
  0.128337953E-01
  0.119690797E-01
  0.116306898E-01
  0.108758852E-01
  0.107421281E-01
  0.120327427E-01
  0.125192665E-01
  0.111735709E-01
  0.103295279E-01
  0.113334153E-01
  0.120446787E-01
  0.106961446E-01
  0.957001739E-02
  0.109751564E-01
  0.132383046E-01
  0.129322602E-01
  0.107606000E-01
  0.976285858E-02
  0.113110128E-01
  0.143011613E-01
  0.148217973E-01
  0.120067847E-01
  0.990953223E-02
  0.108548759E-01
  0.139764638E-01
  0.158634953E-01
  0.139585593E-01
  0.113682639E-01
  0.110495515E-01
  0.130280612E-01
  0.157885818E-01
  0.162111920E-01
  0.141056534E-01
  0.127137181E-01
  0.132749313E-01
  0.146591911E-01
  0.158848229E-01
  0.167944461E-01
  0.164665499E-01
  0.146788997E-01
  0.141855712E-01
  0.161261163E-01
  0.177054114E-01
  0.172801914E-01
  0.168572101E-01
  0.174119857E-01
  0.174680957E-01
  0.170998724E-01
  0.173097030E-01
  0.178605012E-01
  0.186447954E-01
  0.196068735E-01
  0.195254421E-01
  0.184341720E-01
  0.177624035E-01
  0.184994769E-01
  0.200697683E-01
  0.208727976E-01
  0.198755027E-01
  0.165302689E-01
  0.127332538E-01
  0.118684046E-01
  0.134234871E-01
  0.144379146E-01
  0.136928380E-01
  0.121999358E-01
  0.110478234E-01
  0.100302162E-01
  0.924800148E-02
  0.880075272E-02
  0.831605863E-02
  0.780239811E-02
  0.817687707E-02
  0.949866750E-02
  0.956825864E-02
  0.789560912E-02
  0.677945906E-02
  0.715008683E-02
  0.814266912E-02
  0.881365118E-02
  0.874394549E-02
  0.860047994E-02
  0.867181861E-02
  0.812446855E-02
  0.755984650E-02
  0.822427628E-02
  0.906099138E-02
  0.966174889E-02
  0.100040750E-01
  0.886074594E-02
  0.619191210E-02
  0.372755124E-02
</data>
</orbital>
<orbital 
 index="                        2" 
 atom_index="                        1" 
 species="C" 
 Z="                        6" 
 position="  -0.000920   0.000531  18.331131" 
 n="                        2" 
 l="                        0" 
 m="                        0" 
 z="                        2" 
 P="false" 
>
<data>
  0.174698585E-01
  0.166658577E-01
  0.170777636E-01
  0.168844538E-01
  0.158714244E-01
  0.160134455E-01
  0.162584552E-01
  0.152817834E-01
  0.151177564E-01
  0.153610764E-01
  0.148406543E-01
  0.144903518E-01
  0.143817918E-01
  0.142398875E-01
  0.140015725E-01
  0.138383214E-01
  0.135749458E-01
  0.134428391E-01
  0.139379976E-01
  0.134299573E-01
  0.126946907E-01
  0.137348585E-01
  0.137496210E-01
  0.123607450E-01
  0.128725834E-01
  0.137494531E-01
  0.128472434E-01
  0.121483718E-01
  0.128076442E-01
  0.133139794E-01
  0.125075782E-01
  0.118070921E-01
  0.125360395E-01
  0.128187051E-01
  0.121634865E-01
  0.121073419E-01
  0.117742807E-01
  0.115809441E-01
  0.128215665E-01
  0.124086740E-01
  0.102261274E-01
  0.111780202E-01
  0.132108172E-01
  0.115496890E-01
  0.101122334E-01
  0.114098028E-01
  0.115899827E-01
  0.109608217E-01
  0.114570130E-01
  0.107548750E-01
  0.960519064E-02
  0.112068074E-01
  0.120122974E-01
  0.970673084E-02
  0.913587132E-02
  0.110072199E-01
  0.110309723E-01
  0.960737690E-02
  0.960386008E-02
  0.980715441E-02
  0.966900886E-02
  0.102035833E-01
  0.976287762E-02
  0.844711687E-02
  0.896550191E-02
  0.101748308E-01
  0.925595812E-02
  0.802799682E-02
  0.868957057E-02
  0.907830885E-02
  0.843133274E-02
  0.843473609E-02
  0.834483031E-02
  0.757853319E-02
  0.776051427E-02
  0.847063435E-02
  0.776532599E-02
  0.677553645E-02
  0.708655835E-02
  0.745256769E-02
  0.707241668E-02
  0.663736241E-02
  0.614157540E-02
  0.579513406E-02
  0.616365129E-02
  0.625247688E-02
  0.525008052E-02
  0.475366986E-02
  0.527287595E-02
  0.537520801E-02
  0.484964191E-02
  0.448946794E-02
  0.429641249E-02
  0.430572256E-02
  0.455595577E-02
  0.424696642E-02
  0.361319381E-02
  0.360526164E-02
  0.385429294E-02
  0.376369278E-02
  0.345247988E-02
  0.307014655E-02
  0.297753425E-02
  0.331125895E-02
  0.320659013E-02
  0.261016069E-02
  0.248350202E-02
  0.271033160E-02
  0.271147182E-02
  0.239528923E-02
  0.207153050E-02
  0.212667424E-02
  0.226819262E-02
  0.203938214E-02
  0.175666593E-02
  0.170107617E-02
  0.176656883E-02
  0.170917983E-02
  0.141892810E-02
  0.131719454E-02
  0.141160825E-02
  0.129509179E-02
  0.107886431E-02
  0.103736476E-02
  0.104497958E-02
  0.907356597E-03
  0.782903496E-03
  0.760582130E-03
  0.689270134E-03
  0.576868406E-03
  0.522755359E-03
  0.457867614E-03
  0.374435551E-03
  0.311935428E-03
  0.244647096E-03
  0.177701901E-03
  0.116292098E-03
  0.621052659E-04
  0.246697693E-04
  0.656657617E-05
  0.107458437E-05
  0.104565476E-06
  0.845549484E-08
  0.314094547E-08
  0.349538239E-08
  0.396592443E-08
  0.369709536E-08
  0.334893056E-08
  0.385172442E-08
  0.484186619E-08
  0.494994943E-08
  0.404581960E-08
  0.366681046E-08
  0.420123777E-08
  0.384189470E-08
  0.269853640E-08
  0.260019825E-08
  0.324102965E-08
  0.307909487E-08
  0.227699456E-08
  0.209225888E-08
  0.250333054E-08
  0.254401506E-08
  0.200781531E-08
  0.170937500E-08
  0.191940959E-08
  0.205657771E-08
  0.173669085E-08
  0.139613387E-08
  0.146355365E-08
  0.159923183E-08
  0.142170586E-08
  0.113411396E-08
  0.107535309E-08
  0.119008086E-08
  0.110615980E-08
  0.834995512E-09
  0.772375218E-09
  0.841404382E-09
  0.743680555E-09
  0.571712873E-09
  0.510498555E-09
  0.492973855E-09
  0.430983373E-09
  0.323974516E-09
  0.237083280E-09
  0.198326886E-09
  0.160946184E-09
  0.857322736E-10
  0.358654393E-10
  0.592431420E-10
  0.128151188E-09
  0.171348157E-09
  0.191483302E-09
  0.242871745E-09
  0.321888770E-09
  0.374992396E-09
  0.375274710E-09
  0.384192664E-09
  0.476105405E-09
  0.543544578E-09
  0.481430036E-09
  0.460788452E-09
  0.571327020E-09
  0.615390674E-09
  0.514975413E-09
  0.446716822E-09
  0.521644604E-09
  0.564021795E-09
  0.415319840E-09
  0.254728830E-09
  0.248048948E-09
  0.227596982E-09
 -0.430574234E-11
 -0.330093109E-09
 -0.644325917E-09
 -0.108088215E-08
 -0.194272533E-08
 -0.305852442E-08
 -0.359764473E-08
 -0.328991008E-08
 -0.275214895E-08
 -0.242634647E-08
 -0.226943079E-08
 -0.216817388E-08
 -0.207462476E-08
 -0.199261764E-08
 -0.193995264E-08
 -0.192749772E-08
 -0.196142628E-08
 -0.194202784E-08
 -0.190931464E-08
 -0.185052813E-08
 -0.184306472E-08
 -0.195517876E-08
 -0.196004913E-08
 -0.190535681E-08
 -0.187355557E-08
 -0.182005964E-08
 -0.193968217E-08
 -0.207506596E-08
 -0.194675381E-08
 -0.185338156E-08
 -0.190275832E-08
 -0.192079160E-08
 -0.206414532E-08
 -0.213931806E-08
 -0.190344460E-08
 -0.180123227E-08
 -0.200802100E-08
 -0.212137143E-08
 -0.210509032E-08
 -0.206929459E-08
 -0.192302081E-08
 -0.183124240E-08
 -0.207769950E-08
 -0.232360359E-08
 -0.212630057E-08
 -0.188523288E-08
 -0.193636808E-08
 -0.202739968E-08
 -0.213210102E-08
 -0.231363129E-08
 -0.216642882E-08
 -0.182057753E-08
 -0.183396263E-08
 -0.218134475E-08
 -0.234383835E-08
 -0.217758069E-08
 -0.199668282E-08
 -0.190023822E-08
 -0.188599333E-08
 -0.211761875E-08
 -0.242891608E-08
 -0.222235418E-08
 -0.178299279E-08
 -0.176434798E-08
 -0.202677381E-08
 -0.222006698E-08
 -0.225450495E-08
 -0.210137503E-08
 -0.178701017E-08
 -0.165239230E-08
 -0.189942085E-08
 -0.228766654E-08
 -0.225662486E-08
 -0.181157411E-08
 -0.158438996E-08
 -0.164283287E-08
 -0.184496629E-08
 -0.210048571E-08
 -0.208566465E-08
 -0.165112697E-08
 -0.130554602E-08
 -0.138901377E-08
 -0.168970651E-08
 -0.193479465E-08
 -0.173216833E-08
 -0.120622232E-08
 -0.909895495E-09
 -0.102994706E-08
 -0.130909326E-08
 -0.136329696E-08
 -0.107042296E-08
 -0.555560746E-09
 -0.595988373E-10
  0.384774494E-07
  0.171317082E-05
  0.383577177E-04
  0.442706380E-03
  0.269814795E-02
  0.908051852E-02
  0.183045606E-01
  0.250590308E-01
  0.273854458E-01
  0.279983228E-01
  0.279438775E-01
  0.271935174E-01
  0.278435405E-01
  0.284391808E-01
  0.269764158E-01
  0.265617251E-01
  0.285560652E-01
  0.291423047E-01
  0.272042809E-01
  0.265738812E-01
  0.294699739E-01
  0.322938690E-01
  0.303171108E-01
  0.251267712E-01
  0.216262165E-01
  0.217903904E-01
  0.224199045E-01
  0.202103043E-01
  0.165267814E-01
  0.139260415E-01
  0.144861595E-01
  0.170324048E-01
  0.171533316E-01
  0.146239905E-01
  0.122168731E-01
  0.104674576E-01
  0.105179645E-01
  0.133556033E-01
  0.153255075E-01
  0.134154943E-01
  0.975854471E-02
  0.751453958E-02
  0.808895281E-02
  0.112427943E-01
  0.136517949E-01
  0.121728046E-01
  0.916946713E-02
  0.769840975E-02
  0.763648484E-02
  0.830071713E-02
  0.991970873E-02
  0.113414947E-01
  0.107738779E-01
  0.938937252E-02
  0.854275973E-02
  0.747216805E-02
  0.669780387E-02
  0.845432290E-02
  0.112220231E-01
  0.118211196E-01
  0.108254390E-01
  0.936186848E-02
  0.745024432E-02
  0.650256942E-02
  0.816000848E-02
  0.112613596E-01
  0.129539975E-01
  0.130552519E-01
  0.119212718E-01
  0.893544907E-02
  0.596671303E-02
  0.634482508E-02
  0.114209927E-01
  0.171084963E-01
  0.168167058E-01
  0.110724329E-01
  0.667409618E-02
  0.712858053E-02
  0.100291080E-01
  0.127402329E-01
  0.146730343E-01
  0.148782014E-01
  0.127527258E-01
  0.923081311E-02
  0.734103999E-02
  0.888886316E-02
  0.122287009E-01
  0.154664921E-01
  0.214998802E-01
  0.362148632E-01
  0.538950105E-01
  0.595691513E-01
  0.543132755E-01
  0.500415037E-01
  0.491268316E-01
  0.470094644E-01
  0.423944754E-01
  0.384148212E-01
  0.369374321E-01
  0.358308356E-01
  0.363709961E-01
  0.373883875E-01
  0.351758053E-01
  0.330973889E-01
  0.322225741E-01
  0.298627191E-01
  0.287076347E-01
  0.312526302E-01
  0.321977234E-01
  0.279255598E-01
  0.247854413E-01
  0.275479753E-01
  0.297493052E-01
  0.257692770E-01
  0.217285964E-01
  0.232853024E-01
  0.274536738E-01
  0.272559070E-01
  0.225327454E-01
  0.184807582E-01
  0.196156503E-01
  0.257635309E-01
  0.273259979E-01
  0.205616067E-01
  0.147965434E-01
  0.156908896E-01
  0.212221893E-01
  0.247101574E-01
  0.209365640E-01
  0.151610602E-01
  0.126109334E-01
  0.143641792E-01
  0.198276042E-01
  0.216375688E-01
  0.162567083E-01
  0.111228488E-01
  0.112449881E-01
  0.147308848E-01
  0.170779839E-01
  0.163164000E-01
  0.137453983E-01
  0.106390379E-01
  0.965393242E-02
  0.120103334E-01
  0.139867663E-01
  0.133493407E-01
  0.116476013E-01
  0.103785049E-01
  0.100451623E-01
  0.944618360E-02
  0.903685741E-02
  0.101492261E-01
  0.108805027E-01
  0.105805572E-01
  0.963346979E-02
  0.764835704E-02
  0.636350399E-02
  0.718485658E-02
  0.862551265E-02
  0.895678682E-02
  0.834032514E-02
  0.779183223E-02
  0.767913073E-02
  0.839264286E-02
  0.935715412E-02
  0.912744853E-02
  0.793230082E-02
  0.686749279E-02
  0.605527488E-02
  0.543669670E-02
  0.510886916E-02
  0.449359231E-02
  0.361577871E-02
  0.290458797E-02
  0.269564093E-02
  0.298824893E-02
  0.273793402E-02
  0.172144791E-02
  0.878813656E-03
  0.514437502E-03
  0.428034622E-03
  0.304692474E-03
 -0.867527972E-05
 -0.455369221E-03
 -0.901425349E-03
 -0.119926798E-02
 -0.150776778E-02
 -0.194989967E-02
 -0.229679209E-02
 -0.256870252E-02
 -0.277168713E-02
 -0.261810312E-02
 -0.200156489E-02
 -0.131980668E-02
</data>
</orbital>
<orbital 
 index="                        3" 
 atom_index="                        1" 
 species="C" 
 Z="                        6" 
 position="  -0.000920   0.000531  18.331131" 
 n="                        2" 
 l="                        1" 
 m="                       -1" 
 z="                        1" 
 P="false" 
>
<data>
  0.139009753E-01
  0.133416962E-01
  0.137101085E-01
  0.135079717E-01
  0.127720964E-01
  0.129982690E-01
  0.131269737E-01
  0.123630690E-01
  0.123866902E-01
  0.125876737E-01
  0.120977508E-01
  0.119393984E-01
  0.120141981E-01
  0.120262553E-01
  0.127207083E-01
  0.145031861E-01
  0.159945497E-01
  0.168021334E-01
  0.176276320E-01
  0.171672984E-01
  0.168397109E-01
  0.180078958E-01
  0.176857784E-01
  0.165096628E-01
  0.177480127E-01
  0.187086497E-01
  0.170692506E-01
  0.165783946E-01
  0.184719671E-01
  0.189768809E-01
  0.172589631E-01
  0.167328949E-01
  0.183859215E-01
  0.191729583E-01
  0.182090411E-01
  0.175396074E-01
  0.173871629E-01
  0.185902435E-01
  0.202284360E-01
  0.186772717E-01
  0.161154274E-01
  0.183587980E-01
  0.213839208E-01
  0.191067931E-01
  0.171151718E-01
  0.187298899E-01
  0.197901272E-01
  0.197569544E-01
  0.200692960E-01
  0.188097469E-01
  0.177229042E-01
  0.207350176E-01
  0.222137399E-01
  0.189668331E-01
  0.178651550E-01
  0.209431541E-01
  0.223831388E-01
  0.204031431E-01
  0.194748884E-01
  0.204305376E-01
  0.218801647E-01
  0.226567230E-01
  0.210593071E-01
  0.200505848E-01
  0.225019593E-01
  0.241001908E-01
  0.221179598E-01
  0.212905033E-01
  0.239291917E-01
  0.245684765E-01
  0.230666644E-01
  0.243540694E-01
  0.257102438E-01
  0.248045485E-01
  0.254976489E-01
  0.277071064E-01
  0.280597523E-01
  0.278505665E-01
  0.296065833E-01
  0.322382126E-01
  0.351645480E-01
  0.385551262E-01
  0.401148202E-01
  0.386955509E-01
  0.360238550E-01
  0.327373215E-01
  0.287011774E-01
  0.267856404E-01
  0.269851730E-01
  0.260029803E-01
  0.239877371E-01
  0.230362361E-01
  0.226711976E-01
  0.220367530E-01
  0.215883244E-01
  0.208493752E-01
  0.199388362E-01
  0.193713030E-01
  0.192395348E-01
  0.190173129E-01
  0.186143744E-01