Siesta Version  : siesta-4.1b4-124
Architecture    : gfortran-full-options
Compiler version: GNU Fortran (Ubuntu 7.5.0-3ubuntu1~18.04) 7.5.0
Compiler flags  : mpif90 -O2
PP flags        : -DF2003  -DNCDF -DNCDF_4 -DCDF  -DMPI -DMPI_TIMING
Libraries       :  libncdf.a libfdict.a  -lnetcdff -lnetcdf -lscalapack-openmpi -lblacsF77init--openmpi -lblacsCinit-openmpi -lblacs-openmpi -llapack -lblas
PARALLEL version
NetCDF support
NetCDF-4 support

* Running on 6 nodes in parallel
>> Start of run:  20-APR-2024  14:44:43

                           ***********************       
                           *  WELCOME TO SIESTA  *       
                           ***********************       

reinit: Reading from standard input
reinit: Dumped input in INPUT_TMP.37736
************************** Dump of input data file ****************************
        # -- NAME & LABEL --
SystemName       DOS_calculation
SystemLabel      graphene
        # -- MATERIAL --
NumberOfAtoms    2
NumberOfSpecies  1
%block ChemicalSpeciesLabel
    1    6  C
%endblock ChemicalSpeciesLabel
       # -- CELL & ATOMIC POSITIONS
LatticeConstant 1.0 Ang
%block LatticeParameters
  2.460000  2.460000  20.000000  90.000000  90.000000  120.000000
%endblock LatticeParameters
AtomicCoordinatesFormat NotScaledCartesianAng
%block AtomicCoordinatesAndAtomicSpecies
     0.000000000     0.000000000     9.700000000    1
    -0.000012300     1.420288764     9.700000000    1
%endblock AtomicCoordinatesAndAtomicSpecies
       # --MONKHORST PACK --
%block kgrid_Monkhorst_Pack
18   0   0      0
0    18   0     0
0    0   1      0
%endblock kgrid_Monkhorst_Pack
       # --SELF CONSISTENT FIELD - -
MeshCutoff           200.0 Ry
PAO.BasisSize        DZP    # or DZP
PAO.BasisType        split
SolutionMethod       diagon
XC.authors           PBE
XC.functional        GGA
MaxSCFIterations     200
DM.Tolerance         1.d-6    # 0.01 eV
DM.MixingWeight      0.05
DM.NumberPulay       5
       # --MOLECULAR DYNAMICS or CONJUGATE GRADIENT METHOD --
MD.TypeOfRun         cg     # cg: stuctural optimization
MD.NumCGsteps        0    # maximum number of cg minimization moves
MD.MaxCGDispl        0.05  Ang
MD.MaxForceTol       0.02 eV/Ang
MD.VariableCell      T      # T: true, cell relaxation; otherwise: F
MD.ConstantVolume    F
MD.UseSaveXV         T      # read the atomic positions stored in the SystemLabel.XV file
MD.UseSaveCG         F      # read the cg history information stored in the SystemLabel.CG file; used for continuation of the interrupted CG runs
WriteMDHistory       T      # store the atomic coordinates and energy,temperature, etc. in the SystemLabel.MD and SystemLabel.MDE
       # -- SPIN --
SpinPolarized        F      #If spin polarized, use T
DM.InitSpinAF        F      #gives the antiferromagnetic order if T, otherwise all spin up if F
       # -- SAVING DENSITY MATRIX FOR POST RUN --
ON.UseSAVELWF        F
DM.UseSaveDM         F
UseSaveData          F
LongOutput           T
       # -- PROJECTED DOS & BAND STRUCTURE --
%block ProjectedDensityOfStates      #to write the Total DOS and PDOS on the basis orbitals, between two given energies
-15.00 15.00 0.1 500 eV              # energy window from -15 to 15 eV; with gaussian smearing of 0.1 eV; 500 points in the histogram.
%endblock ProjectedDensityOfStates
%block PDOS.kgrid_Monkhorst_Pack
    64   0   0      0
    0    64   0     0
    0    0   1      0
%endblock block PDOS.kgrid_Monkhorst_Pack
BandLinesScale       ReciprocalLatticeVectors
%block BandLines
1     0.000000  0.000000  0.000000    \Gamma
100   0.000000  0.500000  0.000000    M
100   -0.333333 0.666666  0.000000    K
100   0.000000  0.000000  0.000000    \Gamma
%endblock BandLines
       # --Others--
WriteHirshfeldPop   T
WriteVoronoiPop     T
WriteMullikenPop    1
************************** End of input data file *****************************

reinit: -----------------------------------------------------------------------
reinit: System Name: DOS_calculation
reinit: -----------------------------------------------------------------------
reinit: System Label: graphene
reinit: -----------------------------------------------------------------------

initatom: Reading input for the pseudopotentials and atomic orbitals ----------
Species number:   1 Atomic number:    6 Label: C

Ground state valence configuration:   2s02  2p02
Reading pseudopotential information in formatted form from C.psf

Valence configuration for pseudopotential generation:
2s( 2.00) rc: 1.56
2p( 2.00) rc: 1.56
3d( 0.00) rc: 1.56
4f( 0.00) rc: 1.56
For C, standard SIESTA heuristics set lmxkb to 3
 (one more than the basis l, including polarization orbitals).
Use PS.lmax or PS.KBprojectors blocks to override.

<basis_specs>
===============================================================================
C                    Z=   6    Mass=  12.010        Charge= 0.17977+309
Lmxo=1 Lmxkb= 3    BasisType=split      Semic=F
L=0  Nsemic=0  Cnfigmx=2
          i=1  nzeta=2  polorb=0  (2s)
            splnorm:   0.15000    
               vcte:    0.0000    
               rinn:    0.0000    
               qcoe:    0.0000    
               qyuk:    0.0000    
               qwid:   0.10000E-01
                rcs:    0.0000      0.0000    
            lambdas:    1.0000      1.0000    
L=1  Nsemic=0  Cnfigmx=2
          i=1  nzeta=2  polorb=1  (2p)
            splnorm:   0.15000    
               vcte:    0.0000    
               rinn:    0.0000    
               qcoe:    0.0000    
               qyuk:    0.0000    
               qwid:   0.10000E-01
                rcs:    0.0000      0.0000    
            lambdas:    1.0000      1.0000    
-------------------------------------------------------------------------------
L=0  Nkbl=1  erefs: 0.17977+309
L=1  Nkbl=1  erefs: 0.17977+309
L=2  Nkbl=1  erefs: 0.17977+309
L=3  Nkbl=1  erefs: 0.17977+309
===============================================================================
</basis_specs>

atom: Called for C                     (Z =   6)

read_vps: Pseudopotential generation method:
read_vps: ATM 3.2.2 Troullier-Martins                       
Total valence charge:    4.00000

xc_check: Exchange-correlation functional:
xc_check: GGA Perdew, Burke & Ernzerhof 1996
V l=0 = -2*Zval/r beyond r=  1.5227
V l=1 = -2*Zval/r beyond r=  1.5227
V l=2 = -2*Zval/r beyond r=  1.5227
V l=3 = -2*Zval/r beyond r=  1.5227
All V_l potentials equal beyond r=  1.4851
This should be close to max(r_c) in ps generation
All pots = -2*Zval/r beyond r=  1.5227

VLOCAL1: 99.0% of the norm of Vloc inside     19.682 Ry
VLOCAL1: 99.9% of the norm of Vloc inside     44.856 Ry
atom: Maximum radius for 4*pi*r*r*local-pseudopot. charge    1.79142
atom: Maximum radius for r*vlocal+2*Zval:    1.54183
GHOST: No ghost state for L =  0
GHOST: No ghost state for L =  1
GHOST: No ghost state for L =  2
GHOST: No ghost state for L =  3

KBgen: Kleinman-Bylander projectors: 
   l= 0   rc=  1.661951   el= -1.010689   Ekb=  5.289847   kbcos=  0.316429
   l= 1   rc=  1.661951   el= -0.388490   Ekb= -4.102504   kbcos= -0.351025
   l= 2   rc=  1.747182   el=  0.001971   Ekb= -1.006005   kbcos= -0.008530
   l= 3   rc=  1.791422   el=  0.003065   Ekb= -0.421399   kbcos= -0.001072

KBgen: Total number of  Kleinman-Bylander projectors:   16
atom: -------------------------------------------------------------------------

atom: SANKEY-TYPE ORBITALS:
atom: Selected multiple-zeta basis: split     

SPLIT: Orbitals with angular momentum L= 0

SPLIT: Basis orbitals for state 2s

SPLIT: PAO cut-off radius determined from an
SPLIT: energy shift=  0.020000 Ry

   izeta = 1
                 lambda =    1.000000
                     rc =    4.088342
                 energy =   -0.990050
                kinetic =    0.909804
    potential(screened) =   -1.899854
       potential(ionic) =   -5.513925

   izeta = 2
                 rmatch =    3.347176
              splitnorm =    0.150000
                 energy =   -0.836186
                kinetic =    1.375045
    potential(screened) =   -2.211230
       potential(ionic) =   -6.057915

SPLIT: Orbitals with angular momentum L= 1

SPLIT: Basis orbitals for state 2p

SPLIT: PAO cut-off radius determined from an
SPLIT: energy shift=  0.020000 Ry

   izeta = 1
                 lambda =    1.000000
                     rc =    4.870301
                 energy =   -0.368677
                kinetic =    2.532104
    potential(screened) =   -2.900781
       potential(ionic) =   -6.401132

   izeta = 2
                 rmatch =    3.475094
              splitnorm =    0.150000
                 energy =   -0.205777
                kinetic =    3.787472
    potential(screened) =   -3.993249
       potential(ionic) =   -7.860448

POLgen: Perturbative polarization orbital with L=  2

POLgen: Polarization orbital for state 2p

   izeta = 1
                     rc =    4.870301
                 energy =    1.296521
                kinetic =    2.641128
    potential(screened) =   -1.344607
       potential(ionic) =   -4.300412
atom: Total number of Sankey-type orbitals: 13

atm_pop: Valence configuration (for local Pseudopot. screening):
 2s( 2.00)                                                            
 2p( 2.00)                                                            
Vna: chval, zval:    4.00000   4.00000

Vna:  Cut-off radius for the neutral-atom potential:   4.870301

atom: _________________________________________________________________________

prinput: Basis input ----------------------------------------------------------

PAO.BasisType split     

%block ChemicalSpeciesLabel
    1    6 C                       # Species index, atomic number, species label
%endblock ChemicalSpeciesLabel

%block PAO.Basis                 # Define Basis set
C                     2                    # Species label, number of l-shells
 n=2   0   2                         # n, l, Nzeta 
   4.088      3.347   
   1.000      1.000   
 n=2   1   2 P   1                   # n, l, Nzeta, Polarization, NzetaPol
   4.870      3.475   
   1.000      1.000   
%endblock PAO.Basis

prinput: ----------------------------------------------------------------------

Dumping basis to NetCDF file C.ion.nc
coor:   Atomic-coordinates input format  =     Cartesian coordinates
coor:                                          (in Angstroms)

ioxv: Reading coordinates and velocities from file
! Info in XV file prevails over previous structure input

siesta: Atomic coordinates (Bohr) and species
siesta:     -0.00092   0.00053  18.33113  1        1
siesta:      0.00030   2.70145  18.33041  1        2

siesta: System type = slab      

initatomlists: Number of atoms, orbitals, and projectors:      2    26    32

siesta: ******************** Simulation parameters ****************************
siesta:
siesta: The following are some of the parameters of the simulation.
siesta: A complete list of the parameters used, including default values,
siesta: can be found in file out.fdf
siesta:
redata: Spin configuration                          = none
redata: Number of spin components                   = 1
redata: Time-Reversal Symmetry                      = T
redata: Spin-spiral                                 = F
redata: Long output                                 =   T
redata: Number of Atomic Species                    =        1
redata: Charge density info will appear in .RHO file
redata: Write Mulliken Pop.                         = Atomic and Orbital charges
redata: Matel table size (NRTAB)                    =     1024
redata: Mesh Cutoff                                 =   200.0000 Ry
redata: Net charge of the system                    =     0.0000 |e|
redata: Min. number of SCF Iter                     =        0
redata: Max. number of SCF Iter                     =      200
redata: SCF convergence failure will abort job
redata: SCF mix quantity                            = Hamiltonian
redata: Mix DM or H after convergence               =   F
redata: Recompute H after scf cycle                 =   F
redata: Mix DM in first SCF step                    =   T
redata: Write Pulay info on disk                    =   F
redata: New DM Occupancy tolerance                  = 0.000000000001
redata: No kicks to SCF
redata: DM Mixing Weight for Kicks                  =     0.5000
redata: Require Harris convergence for SCF          =   F
redata: Harris energy tolerance for SCF             =     0.000100 eV
redata: Require DM convergence for SCF              =   T
redata: DM tolerance for SCF                        =     0.000001
redata: Require EDM convergence for SCF             =   F
redata: EDM tolerance for SCF                       =     0.001000 eV
redata: Require H convergence for SCF               =   T
redata: Hamiltonian tolerance for SCF               =     0.001000 eV
redata: Require (free) Energy convergence for SCF   =   F
redata: (free) Energy tolerance for SCF             =     0.000100 eV
redata: Using Saved Data (generic)                  =   F
redata: Use continuation files for DM               =   F
redata: Neglect nonoverlap interactions             =   F
redata: Method of Calculation                       = Diagonalization
redata: Electronic Temperature                      =   299.9869 K
redata: Fix the spin of the system                  =   F
redata: Dynamics option                             = Single-point calculation
mix.SCF: Pulay mixing                            = Pulay
mix.SCF:    Variant                              = stable
mix.SCF:    History steps                        = 5
mix.SCF:    Linear mixing weight                 =     0.050000
mix.SCF:    Mixing weight                        =     0.050000
mix.SCF:    SVD condition                        = 0.1000E-07
redata: Save all siesta data in one NC              =   F
redata: ***********************************************************************

%block SCF.Mixers
  Pulay
%endblock SCF.Mixers

%block SCF.Mixer.Pulay
  # Mixing method
  method pulay
  variant stable

  # Mixing options
  weight 0.0500
  weight.linear 0.0500
  history 5
%endblock SCF.Mixer.Pulay

DM_history_depth set to one: no extrapolation allowed by default for geometry relaxation
Size of DM history Fstack: 1
Total number of electrons:     8.000000
Total ionic charge:     8.000000

* ProcessorY, Blocksize:    2   4


* Orbital distribution balance (max,min):     6     4

k-point displ. along   1 input, could be:     0.00    0.50
k-point displ. along   2 input, could be:     0.00    0.50
 Kpoints in:          180 . Kpoints trimmed:          172

siesta: k-point coordinates (Bohr**-1) and weights:
siesta:    1   -0.596620   -0.344639    0.000000       0.006173
siesta:    2   -0.522042   -0.301559    0.000000       0.006173
siesta:    3   -0.447465   -0.258479    0.000000       0.006173
siesta:    4   -0.372887   -0.215399    0.000000       0.006173
siesta:    5   -0.298310   -0.172320    0.000000       0.006173
siesta:    6   -0.223732   -0.129240    0.000000       0.006173
siesta:    7   -0.149155   -0.086160    0.000000       0.006173
siesta:    8   -0.074577   -0.043080    0.000000       0.006173
siesta:    9    0.000000    0.000000    0.000000       0.003086
siesta:   10    0.671197    0.387719   -0.000001       0.003086
siesta:   11   -0.596600   -0.258513    0.000001       0.006173
siesta:   12   -0.522023   -0.215433    0.000000       0.006173
siesta:   13   -0.447445   -0.172353    0.000000       0.006173
siesta:   14   -0.372868   -0.129273    0.000000       0.006173
siesta:   15   -0.298290   -0.086194    0.000000       0.006173
siesta:   16   -0.223713   -0.043114    0.000000       0.006173
siesta:   17   -0.149135   -0.000034    0.000000       0.006173
siesta:   18   -0.074558    0.043046    0.000000       0.006173
siesta:   19    0.000020    0.086126    0.000000       0.006173
siesta:   20    0.074597    0.129206   -0.000000       0.006173
siesta:   21    0.149175    0.172286   -0.000000       0.006173
siesta:   22    0.223752    0.215366   -0.000000       0.006173
siesta:   23    0.298329    0.258445   -0.000000       0.006173
siesta:   24    0.372907    0.301525   -0.000000       0.006173
siesta:   25    0.447484    0.344605   -0.000000       0.006173
siesta:   26    0.522062    0.387685   -0.000000       0.006173
siesta:   27    0.596639    0.430765   -0.000000       0.006173
siesta:   28    0.671217    0.473845   -0.000000       0.006173
siesta:   29   -0.596581   -0.172387    0.000001       0.006173
siesta:   30   -0.522003   -0.129307    0.000001       0.006173
siesta:   31   -0.447426   -0.086227    0.000000       0.006173
siesta:   32   -0.372848   -0.043148    0.000000       0.006173
siesta:   33   -0.298271   -0.000068    0.000000       0.006173
siesta:   34   -0.223693    0.043012    0.000000       0.006173
siesta:   35   -0.149116    0.086092    0.000000       0.006173
siesta:   36   -0.074538    0.129172    0.000000       0.006173
siesta:   37    0.000039    0.172252    0.000000       0.006173
siesta:   38    0.074617    0.215332    0.000000       0.006173
siesta:   39    0.149194    0.258412   -0.000000       0.006173
siesta:   40    0.223772    0.301492   -0.000000       0.006173
siesta:   41    0.298349    0.344571   -0.000000       0.006173
siesta:   42    0.372927    0.387651   -0.000000       0.006173
siesta:   43    0.447504    0.430731   -0.000000       0.006173
siesta:   44    0.522081    0.473811   -0.000000       0.006173
siesta:   45    0.596659    0.516891   -0.000000       0.006173
siesta:   46    0.671236    0.559971   -0.000000       0.006173
siesta:   47   -0.596561   -0.086261    0.000001       0.006173
siesta:   48   -0.521984   -0.043181    0.000001       0.006173
siesta:   49   -0.447406   -0.000101    0.000001       0.006173
siesta:   50   -0.372829    0.042978    0.000000       0.006173
siesta:   51   -0.298251    0.086058    0.000000       0.006173
siesta:   52   -0.223674    0.129138    0.000000       0.006173
siesta:   53   -0.149096    0.172218    0.000000       0.006173
siesta:   54   -0.074519    0.215298    0.000000       0.006173
siesta:   55    0.000059    0.258378    0.000000       0.006173
siesta:   56    0.074636    0.301458    0.000000       0.006173
siesta:   57    0.149214    0.344538    0.000000       0.006173
siesta:   58    0.223791    0.387617   -0.000000       0.006173
siesta:   59    0.298369    0.430697   -0.000000       0.006173
siesta:   60    0.372946    0.473777   -0.000000       0.006173
siesta:   61    0.447524    0.516857   -0.000000       0.006173
siesta:   62    0.522101    0.559937   -0.000000       0.006173
siesta:   63    0.596679    0.603017   -0.000000       0.006173
siesta:   64    0.671256    0.646097   -0.000000       0.006173
siesta:   65   -0.596542   -0.000135    0.000001       0.006173
siesta:   66   -0.521964    0.042945    0.000001       0.006173
siesta:   67   -0.447387    0.086024    0.000001       0.006173
siesta:   68   -0.372809    0.129104    0.000001       0.006173
siesta:   69   -0.298232    0.172184    0.000000       0.006173
siesta:   70   -0.223654    0.215264    0.000000       0.006173
siesta:   71   -0.149077    0.258344    0.000000       0.006173
siesta:   72   -0.074499    0.301424    0.000000       0.006173
siesta:   73    0.000078    0.344504    0.000000       0.006173
siesta:   74    0.074656    0.387584    0.000000       0.006173
siesta:   75    0.149233    0.430664    0.000000       0.006173
siesta:   76    0.223811    0.473743    0.000000       0.006173
siesta:   77    0.298388    0.516823   -0.000000       0.006173
siesta:   78    0.372966    0.559903   -0.000000       0.006173
siesta:   79    0.447543    0.602983   -0.000000       0.006173
siesta:   80    0.522121    0.646063   -0.000000       0.006173
siesta:   81    0.596698    0.689143   -0.000000       0.006173
siesta:   82    0.671276    0.732223   -0.000000       0.006173
siesta:   83   -0.596522    0.085991    0.000001       0.006173
siesta:   84   -0.521945    0.129071    0.000001       0.006173
siesta:   85   -0.447367    0.172150    0.000001       0.006173
siesta:   86   -0.372790    0.215230    0.000001       0.006173
siesta:   87   -0.298212    0.258310    0.000001       0.006173
siesta:   88   -0.223635    0.301390    0.000000       0.006173
siesta:   89   -0.149057    0.344470    0.000000       0.006173
siesta:   90   -0.074480    0.387550    0.000000       0.006173
siesta:   91    0.000098    0.430630    0.000000       0.006173
siesta:   92    0.074675    0.473710    0.000000       0.006173
siesta:   93    0.149253    0.516789    0.000000       0.006173
siesta:   94    0.223830    0.559869    0.000000       0.006173
siesta:   95    0.298408    0.602949    0.000000       0.006173
siesta:   96    0.372985    0.646029   -0.000000       0.006173
siesta:   97    0.447563    0.689109   -0.000000       0.006173
siesta:   98    0.522140    0.732189   -0.000000       0.006173
siesta:   99    0.596718    0.775269   -0.000000       0.006173
siesta:  100    0.671295    0.818349   -0.000000       0.006173
siesta:  101   -0.596503    0.172117    0.000001       0.006173
siesta:  102   -0.521925    0.215196    0.000001       0.006173
siesta:  103   -0.447348    0.258276    0.000001       0.006173
siesta:  104   -0.372770    0.301356    0.000001       0.006173
siesta:  105   -0.298193    0.344436    0.000001       0.006173
siesta:  106   -0.223615    0.387516    0.000001       0.006173
siesta:  107   -0.149038    0.430596    0.000000       0.006173
siesta:  108   -0.074460    0.473676    0.000000       0.006173
siesta:  109    0.000117    0.516756    0.000000       0.006173
siesta:  110    0.074695    0.559836    0.000000       0.006173
siesta:  111    0.149272    0.602915    0.000000       0.006173
siesta:  112    0.223850    0.645995    0.000000       0.006173
siesta:  113    0.298427    0.689075    0.000000       0.006173
siesta:  114    0.373005    0.732155    0.000000       0.006173
siesta:  115    0.447582    0.775235   -0.000000       0.006173
siesta:  116    0.522160    0.818315   -0.000000       0.006173
siesta:  117    0.596737    0.861395   -0.000000       0.006173
siesta:  118    0.671315    0.904475   -0.000000       0.006173
siesta:  119   -0.596483    0.258243    0.000001       0.006173
siesta:  120   -0.521906    0.301322    0.000001       0.006173
siesta:  121   -0.447328    0.344402    0.000001       0.006173
siesta:  122   -0.372751    0.387482    0.000001       0.006173
siesta:  123   -0.298173    0.430562    0.000001       0.006173
siesta:  124   -0.223596    0.473642    0.000001       0.006173
siesta:  125   -0.149018    0.516722    0.000001       0.006173
siesta:  126   -0.074441    0.559802    0.000000       0.006173
siesta:  127    0.000137    0.602882    0.000000       0.006173
siesta:  128    0.074714    0.645961    0.000000       0.006173
siesta:  129    0.149292    0.689041    0.000000       0.006173
siesta:  130    0.223869    0.732121    0.000000       0.006173
siesta:  131    0.298447    0.775201    0.000000       0.006173
siesta:  132    0.373024    0.818281    0.000000       0.006173
siesta:  133    0.447602    0.861361    0.000000       0.006173
siesta:  134    0.522179    0.904441   -0.000000       0.006173
siesta:  135    0.596757    0.947521   -0.000000       0.006173
siesta:  136    0.671334    0.990601   -0.000000       0.006173
siesta:  137   -0.596464    0.344368    0.000001       0.006173
siesta:  138   -0.521886    0.387448    0.000001       0.006173
siesta:  139   -0.447309    0.430528    0.000001       0.006173
siesta:  140   -0.372731    0.473608    0.000001       0.006173
siesta:  141   -0.298154    0.516688    0.000001       0.006173
siesta:  142   -0.223576    0.559768    0.000001       0.006173
siesta:  143   -0.148999    0.602848    0.000001       0.006173
siesta:  144   -0.074421    0.645928    0.000001       0.006173
siesta:  145    0.000156    0.689008    0.000000       0.006173
siesta:  146    0.074734    0.732087    0.000000       0.006173
siesta:  147    0.149311    0.775167    0.000000       0.006173
siesta:  148    0.223889    0.818247    0.000000       0.006173
siesta:  149    0.298466    0.861327    0.000000       0.006173
siesta:  150    0.373044    0.904407    0.000000       0.006173
siesta:  151    0.447621    0.947487    0.000000       0.006173
siesta:  152    0.522199    0.990567    0.000000       0.006173
siesta:  153    0.596776    1.033647   -0.000000       0.006173
siesta:  154    0.671354    1.076726   -0.000000       0.006173
siesta:  155   -0.596444    0.430494    0.000001       0.003086
siesta:  156   -0.521867    0.473574    0.000001       0.003086
siesta:  157   -0.447289    0.516654    0.000001       0.003086
siesta:  158   -0.372712    0.559734    0.000001       0.003086
siesta:  159   -0.298134    0.602814    0.000001       0.003086
siesta:  160   -0.223557    0.645894    0.000001       0.003086
siesta:  161   -0.148979    0.688974    0.000001       0.003086
siesta:  162   -0.074402    0.732054    0.000001       0.003086
siesta:  163    0.000176    0.775133    0.000001       0.003086
siesta:  164    0.074753    0.818213    0.000000       0.003086
siesta:  165    0.149331    0.861293    0.000000       0.003086
siesta:  166    0.223908    0.904373    0.000000       0.003086
siesta:  167    0.298486    0.947453    0.000000       0.003086
siesta:  168    0.373063    0.990533    0.000000       0.003086
siesta:  169    0.447641    1.033613    0.000000       0.003086
siesta:  170    0.522218    1.076693    0.000000       0.003086
siesta:  171    0.596796    1.119773    0.000000       0.003086
siesta:  172    0.671373    1.162852   -0.000000       0.003086

siesta: k-grid: Number of k-points =   172
siesta: k-grid: Cutoff (effective) =    10.000 Ang
siesta: k-grid: Supercell and displacements
siesta: k-grid:   18   0   0      0.000
siesta: k-grid:    0  18   0      0.000
siesta: k-grid:    0   0   1      0.000

diag: Algorithm                                     = D&C
diag: Parallel over k                               =   F
diag: Use parallel 2D distribution                  =   T
diag: Parallel block-size                           = 4
diag: Parallel distribution                         =     2 x     3
diag: Used triangular part                          = Lower
diag: Absolute tolerance                            =  0.100E-15
diag: Orthogonalization factor                      =  0.100E-05
diag: Memory factor                                 =  1.0000
k-point displ. along   1 input, could be:     0.00    0.50
k-point displ. along   2 input, could be:     0.00    0.50
 Kpoints in:         2112 . Kpoints trimmed:         2081

siesta: k-point coordinates (Bohr**-1) and weights for PDOS:
siesta:    1   -0.650222   -0.375603    0.000000       0.000488
siesta:    2   -0.629248   -0.363487    0.000000       0.000488
siesta:    3   -0.608273   -0.351370    0.000000       0.000488
siesta:    4   -0.587298   -0.339254    0.000000       0.000488
siesta:    5   -0.566323   -0.327138    0.000000       0.000488
siesta:    6   -0.545348   -0.315022    0.000000       0.000488
siesta:    7   -0.524373   -0.302905    0.000000       0.000488
siesta:    8   -0.503398   -0.290789    0.000000       0.000488
siesta:    9   -0.482423   -0.278673    0.000000       0.000488
siesta:   10   -0.461448   -0.266557    0.000000       0.000488
siesta:   11   -0.440473   -0.254441    0.000000       0.000488
siesta:   12   -0.419498   -0.242324    0.000000       0.000488
siesta:   13   -0.398523   -0.230208    0.000000       0.000488
siesta:   14   -0.377549   -0.218092    0.000000       0.000488
siesta:   15   -0.356574   -0.205976    0.000000       0.000488
siesta:   16   -0.335599   -0.193859    0.000000       0.000488
siesta:   17   -0.314624   -0.181743    0.000000       0.000488
siesta:   18   -0.293649   -0.169627    0.000000       0.000488
siesta:   19   -0.272674   -0.157511    0.000000       0.000488
siesta:   20   -0.251699   -0.145395    0.000000       0.000488
siesta:   21   -0.230724   -0.133278    0.000000       0.000488
siesta:   22   -0.209749   -0.121162    0.000000       0.000488
siesta:   23   -0.188774   -0.109046    0.000000       0.000488
siesta:   24   -0.167799   -0.096930    0.000000       0.000488
siesta:   25   -0.146824   -0.084814    0.000000       0.000488
siesta:   26   -0.125850   -0.072697    0.000000       0.000488
siesta:   27   -0.104875   -0.060581    0.000000       0.000488
siesta:   28   -0.083900   -0.048465    0.000000       0.000488
siesta:   29   -0.062925   -0.036349    0.000000       0.000488
siesta:   30   -0.041950   -0.024232    0.000000       0.000488
siesta:   31   -0.020975   -0.012116    0.000000       0.000488
siesta:   32    0.000000    0.000000    0.000000       0.000244
siesta:   33    0.671197    0.387719   -0.000001       0.000244
siesta:   34   -0.650217   -0.351380    0.000001       0.000488
siesta:   35   -0.629242   -0.339264    0.000000       0.000488
siesta:   36   -0.608267   -0.327147    0.000000       0.000488
siesta:   37   -0.587292   -0.315031    0.000000       0.000488
siesta:   38   -0.566317   -0.302915    0.000000       0.000488
siesta:   39   -0.545342   -0.290799    0.000000       0.000488
siesta:   40   -0.524367   -0.278683    0.000000       0.000488
siesta:   41   -0.503393   -0.266566    0.000000       0.000488
siesta:   42   -0.482418   -0.254450    0.000000       0.000488
siesta:   43   -0.461443   -0.242334    0.000000       0.000488
siesta:   44   -0.440468   -0.230218    0.000000       0.000488
siesta:   45   -0.419493   -0.218101    0.000000       0.000488
siesta:   46   -0.398518   -0.205985    0.000000       0.000488
siesta:   47   -0.377543   -0.193869    0.000000       0.000488
siesta:   48   -0.356568   -0.181753    0.000000       0.000488
siesta:   49   -0.335593   -0.169637    0.000000       0.000488
siesta:   50   -0.314618   -0.157520    0.000000       0.000488
siesta:   51   -0.293643   -0.145404    0.000000       0.000488
siesta:   52   -0.272668   -0.133288    0.000000       0.000488
siesta:   53   -0.251694   -0.121172    0.000000       0.000488
siesta:   54   -0.230719   -0.109055    0.000000       0.000488
siesta:   55   -0.209744   -0.096939    0.000000       0.000488
siesta:   56   -0.188769   -0.084823    0.000000       0.000488
siesta:   57   -0.167794   -0.072707    0.000000       0.000488
siesta:   58   -0.146819   -0.060591    0.000000       0.000488
siesta:   59   -0.125844   -0.048474    0.000000       0.000488
siesta:   60   -0.104869   -0.036358    0.000000       0.000488
siesta:   61   -0.083894   -0.024242    0.000000       0.000488
siesta:   62   -0.062919   -0.012126    0.000000       0.000488
siesta:   63   -0.041944   -0.000010    0.000000       0.000488
siesta:   64   -0.020969    0.012107    0.000000       0.000488
siesta:   65    0.000005    0.024223    0.000000       0.000488
siesta:   66    0.020980    0.036339   -0.000000       0.000488
siesta:   67    0.041955    0.048455   -0.000000       0.000488
siesta:   68    0.062930    0.060572   -0.000000       0.000488
siesta:   69    0.083905    0.072688   -0.000000       0.000488
siesta:   70    0.104880    0.084804   -0.000000       0.000488
siesta:   71    0.125855    0.096920   -0.000000       0.000488
siesta:   72    0.146830    0.109036   -0.000000       0.000488
siesta:   73    0.167805    0.121153   -0.000000       0.000488
siesta:   74    0.188780    0.133269   -0.000000       0.000488
siesta:   75    0.209755    0.145385   -0.000000       0.000488
siesta:   76    0.230730    0.157501   -0.000000       0.000488
siesta:   77    0.251705    0.169618   -0.000000       0.000488
siesta:   78    0.272679    0.181734   -0.000000       0.000488
siesta:   79    0.293654    0.193850   -0.000000       0.000488
siesta:   80    0.314629    0.205966   -0.000000       0.000488
siesta:   81    0.335604    0.218082   -0.000000       0.000488
siesta:   82    0.356579    0.230199   -0.000000       0.000488
siesta:   83    0.377554    0.242315   -0.000000       0.000488
siesta:   84    0.398529    0.254431   -0.000000       0.000488
siesta:   85    0.419504    0.266547   -0.000000       0.000488
siesta:   86    0.440479    0.278663   -0.000000       0.000488
siesta:   87    0.461454    0.290780   -0.000000       0.000488
siesta:   88    0.482429    0.302896   -0.000000       0.000488
siesta:   89    0.503404    0.315012   -0.000000       0.000488
siesta:   90    0.524378    0.327128   -0.000000       0.000488
siesta:   91    0.545353    0.339245   -0.000000       0.000488
siesta:   92    0.566328    0.351361   -0.000000       0.000488
siesta:   93    0.587303    0.363477   -0.000000       0.000488
siesta:   94    0.608278    0.375593   -0.000000       0.000488
siesta:   95    0.629253    0.387709   -0.000000       0.000488
siesta:   96    0.650228    0.399826   -0.000000       0.000488
siesta:   97    0.671203    0.411942   -0.000000       0.000488
siesta:   98   -0.650212   -0.327157    0.000001       0.000488
siesta:   99   -0.629237   -0.315041    0.000001       0.000488
siesta:  100   -0.608262   -0.302924    0.000000       0.000488
siesta:  101   -0.587287   -0.290808    0.000000       0.000488
siesta:  102   -0.566312   -0.278692    0.000000       0.000488
siesta:  103   -0.545337   -0.266576    0.000000       0.000488
siesta:  104   -0.524362   -0.254460    0.000000       0.000488
siesta:  105   -0.503387   -0.242343    0.000000       0.000488
siesta:  106   -0.482412   -0.230227    0.000000       0.000488
siesta:  107   -0.461437   -0.218111    0.000000       0.000488
siesta:  108   -0.440462   -0.205995    0.000000       0.000488
siesta:  109   -0.419487   -0.193879    0.000000       0.000488
siesta:  110   -0.398512   -0.181762    0.000000       0.000488
siesta:  111   -0.377538   -0.169646    0.000000       0.000488
siesta:  112   -0.356563   -0.157530    0.000000       0.000488
siesta:  113   -0.335588   -0.145414    0.000000       0.000488
siesta:  114   -0.314613   -0.133297    0.000000       0.000488
siesta:  115   -0.293638   -0.121181    0.000000       0.000488
siesta:  116   -0.272663   -0.109065    0.000000       0.000488
siesta:  117   -0.251688   -0.096949    0.000000       0.000488
siesta:  118   -0.230713   -0.084833    0.000000       0.000488
siesta:  119   -0.209738   -0.072716    0.000000       0.000488
siesta:  120   -0.188763   -0.060600    0.000000       0.000488
siesta:  121   -0.167788   -0.048484    0.000000       0.000488
siesta:  122   -0.146813   -0.036368    0.000000       0.000488
siesta:  123   -0.125839   -0.024251    0.000000       0.000488
siesta:  124   -0.104864   -0.012135    0.000000       0.000488
siesta:  125   -0.083889   -0.000019    0.000000       0.000488
siesta:  126   -0.062914    0.012097    0.000000       0.000488
siesta:  127   -0.041939    0.024213    0.000000       0.000488
siesta:  128   -0.020964    0.036330    0.000000       0.000488
siesta:  129    0.000011    0.048446    0.000000       0.000488
siesta:  130    0.020986    0.060562    0.000000       0.000488
siesta:  131    0.041961    0.072678   -0.000000       0.000488
siesta:  132    0.062936    0.084794   -0.000000       0.000488
siesta:  133    0.083911    0.096911   -0.000000       0.000488
siesta:  134    0.104886    0.109027   -0.000000       0.000488
siesta:  135    0.125860    0.121143   -0.000000       0.000488
siesta:  136    0.146835    0.133259   -0.000000       0.000488
siesta:  137    0.167810    0.145376   -0.000000       0.000488
siesta:  138    0.188785    0.157492   -0.000000       0.000488
siesta:  139    0.209760    0.169608   -0.000000       0.000488
siesta:  140    0.230735    0.181724   -0.000000       0.000488
siesta:  141    0.251710    0.193840   -0.000000       0.000488
siesta:  142    0.272685    0.205957   -0.000000       0.000488
siesta:  143    0.293660    0.218073   -0.000000       0.000488
siesta:  144    0.314635    0.230189   -0.000000       0.000488
siesta:  145    0.335610    0.242305   -0.000000       0.000488
siesta:  146    0.356585    0.254422   -0.000000       0.000488
siesta:  147    0.377560    0.266538   -0.000000       0.000488
siesta:  148    0.398534    0.278654   -0.000000       0.000488
siesta:  149    0.419509    0.290770   -0.000000       0.000488
siesta:  150    0.440484    0.302886   -0.000000       0.000488
siesta:  151    0.461459    0.315003   -0.000000       0.000488
siesta:  152    0.482434    0.327119   -0.000000       0.000488
siesta:  153    0.503409    0.339235   -0.000000       0.000488
siesta:  154    0.524384    0.351351   -0.000000       0.000488
siesta:  155    0.545359    0.363467   -0.000000       0.000488
siesta:  156    0.566334    0.375584   -0.000000       0.000488
siesta:  157    0.587309    0.387700   -0.000000       0.000488
siesta:  158    0.608284    0.399816   -0.000000       0.000488
siesta:  159    0.629259    0.411932   -0.000000       0.000488
siesta:  160    0.650233    0.424049   -0.000000       0.000488
siesta:  161    0.671208    0.436165   -0.000000       0.000488
siesta:  162   -0.650206   -0.302934    0.000001       0.000488
siesta:  163   -0.629231   -0.290818    0.000001       0.000488
siesta:  164   -0.608256   -0.278702    0.000001       0.000488
siesta:  165   -0.587281   -0.266585    0.000000       0.000488
siesta:  166   -0.566306   -0.254469    0.000000       0.000488
siesta:  167   -0.545331   -0.242353    0.000000       0.000488
siesta:  168   -0.524356   -0.230237    0.000000       0.000488
siesta:  169   -0.503382   -0.218120    0.000000       0.000488
siesta:  170   -0.482407   -0.206004    0.000000       0.000488
siesta:  171   -0.461432   -0.193888    0.000000       0.000488
siesta:  172   -0.440457   -0.181772    0.000000       0.000488
siesta:  173   -0.419482   -0.169656    0.000000       0.000488
siesta:  174   -0.398507   -0.157539    0.000000       0.000488
siesta:  175   -0.377532   -0.145423    0.000000       0.000488
siesta:  176   -0.356557   -0.133307    0.000000       0.000488
siesta:  177   -0.335582   -0.121191    0.000000       0.000488
siesta:  178   -0.314607   -0.109074    0.000000       0.000488
siesta:  179   -0.293632   -0.096958    0.000000       0.000488
siesta:  180   -0.272657   -0.084842    0.000000       0.000488
siesta:  181   -0.251683   -0.072726    0.000000       0.000488
siesta:  182   -0.230708   -0.060610    0.000000       0.000488
siesta:  183   -0.209733   -0.048493    0.000000       0.000488
siesta:  184   -0.188758   -0.036377    0.000000       0.000488
siesta:  185   -0.167783   -0.024261    0.000000       0.000488
siesta:  186   -0.146808   -0.012145    0.000000       0.000488
siesta:  187   -0.125833   -0.000029    0.000000       0.000488
siesta:  188   -0.104858    0.012088    0.000000       0.000488
siesta:  189   -0.083883    0.024204    0.000000       0.000488
siesta:  190   -0.062908    0.036320    0.000000       0.000488
siesta:  191   -0.041933    0.048436    0.000000       0.000488
siesta:  192   -0.020958    0.060553    0.000000       0.000488
siesta:  193    0.000016    0.072669    0.000000       0.000488
siesta:  194    0.020991    0.084785    0.000000       0.000488
siesta:  195    0.041966    0.096901    0.000000       0.000488
siesta:  196    0.062941    0.109017   -0.000000       0.000488
siesta:  197    0.083916    0.121134   -0.000000       0.000488
siesta:  198    0.104891    0.133250   -0.000000       0.000488
siesta:  199    0.125866    0.145366   -0.000000       0.000488
siesta:  200    0.146841    0.157482   -0.000000       0.000488
siesta:  201    0.167816    0.169599   -0.000000       0.000488
siesta:  202    0.188791    0.181715   -0.000000       0.000488
siesta:  203    0.209766    0.193831   -0.000000       0.000488
siesta:  204    0.230741    0.205947   -0.000000       0.000488
siesta:  205    0.251716    0.218063   -0.000000       0.000488
siesta:  206    0.272690    0.230180   -0.000000       0.000488
siesta:  207    0.293665    0.242296   -0.000000       0.000488
siesta:  208    0.314640    0.254412   -0.000000       0.000488
siesta:  209    0.335615    0.266528   -0.000000       0.000488
siesta:  210    0.356590    0.278644   -0.000000       0.000488
siesta:  211    0.377565    0.290761   -0.000000       0.000488
siesta:  212    0.398540    0.302877   -0.000000       0.000488
siesta:  213    0.419515    0.314993   -0.000000       0.000488
siesta:  214    0.440490    0.327109   -0.000000       0.000488
siesta:  215    0.461465    0.339226   -0.000000       0.000488
siesta:  216    0.482440    0.351342   -0.000000       0.000488
siesta:  217    0.503415    0.363458   -0.000000       0.000488
siesta:  218    0.524389    0.375574   -0.000000       0.000488
siesta:  219    0.545364    0.387690   -0.000000       0.000488
siesta:  220    0.566339    0.399807   -0.000000       0.000488
siesta:  221    0.587314    0.411923   -0.000000       0.000488
siesta:  222    0.608289    0.424039   -0.000000       0.000488
siesta:  223    0.629264    0.436155   -0.000000       0.000488
siesta:  224    0.650239    0.448272   -0.000000       0.000488
siesta:  225    0.671214    0.460388   -0.000000       0.000488
siesta:  226   -0.650201   -0.278711    0.000001       0.000488
siesta:  227   -0.629226   -0.266595    0.000001       0.000488
siesta:  228   -0.608251   -0.254479    0.000001       0.000488
siesta:  229   -0.587276   -0.242362    0.000001       0.000488
siesta:  230   -0.566301   -0.230246    0.000000       0.000488
siesta:  231   -0.545326   -0.218130    0.000000       0.000488
siesta:  232   -0.524351   -0.206014    0.000000       0.000488
siesta:  233   -0.503376   -0.193898    0.000000       0.000488
siesta:  234   -0.482401   -0.181781    0.000000       0.000488
siesta:  235   -0.461426   -0.169665    0.000000       0.000488
siesta:  236   -0.440451   -0.157549    0.000000       0.000488
siesta:  237   -0.419476   -0.145433    0.000000       0.000488
siesta:  238   -0.398501   -0.133316    0.000000       0.000488
siesta:  239   -0.377527   -0.121200    0.000000       0.000488
siesta:  240   -0.356552   -0.109084    0.000000       0.000488
siesta:  241   -0.335577   -0.096968    0.000000       0.000488
siesta:  242   -0.314602   -0.084852    0.000000       0.000488
siesta:  243   -0.293627   -0.072735    0.000000       0.000488
siesta:  244   -0.272652   -0.060619    0.000000       0.000488
siesta:  245   -0.251677   -0.048503    0.000000       0.000488
siesta:  246   -0.230702   -0.036387    0.000000       0.000488
siesta:  247   -0.209727   -0.024270    0.000000       0.000488
siesta:  248   -0.188752   -0.012154    0.000000       0.000488
siesta:  249   -0.167777   -0.000038    0.000000       0.000488
siesta:  250   -0.146802    0.012078    0.000000       0.000488
siesta:  251   -0.125828    0.024194    0.000000       0.000488
siesta:  252   -0.104853    0.036311    0.000000       0.000488
siesta:  253   -0.083878    0.048427    0.000000       0.000488
siesta:  254   -0.062903    0.060543    0.000000       0.000488
siesta:  255   -0.041928    0.072659    0.000000       0.000488
siesta:  256   -0.020953    0.084775    0.000000       0.000488
siesta:  257    0.000022    0.096892    0.000000       0.000488
siesta:  258    0.020997    0.109008    0.000000       0.000488
siesta:  259    0.041972    0.121124    0.000000       0.000488
siesta:  260    0.062947    0.133240    0.000000       0.000488
siesta:  261    0.083922    0.145357   -0.000000       0.000488
siesta:  262    0.104897    0.157473   -0.000000       0.000488
siesta:  263    0.125871    0.169589   -0.000000       0.000488
siesta:  264    0.146846    0.181705   -0.000000       0.000488
siesta:  265    0.167821    0.193821   -0.000000       0.000488
siesta:  266    0.188796    0.205938   -0.000000       0.000488
siesta:  267    0.209771    0.218054   -0.000000       0.000488
siesta:  268    0.230746    0.230170   -0.000000       0.000488
siesta:  269    0.251721    0.242286   -0.000000       0.000488
siesta:  270    0.272696    0.254403   -0.000000       0.000488
siesta:  271    0.293671    0.266519   -0.000000       0.000488
siesta:  272    0.314646    0.278635   -0.000000       0.000488
siesta:  273    0.335621    0.290751   -0.000000       0.000488
siesta:  274    0.356596    0.302867   -0.000000       0.000488
siesta:  275    0.377571    0.314984   -0.000000       0.000488
siesta:  276    0.398545    0.327100   -0.000000       0.000488
siesta:  277    0.419520    0.339216   -0.000000       0.000488
siesta:  278    0.440495    0.351332   -0.000000       0.000488
siesta:  279    0.461470    0.363448   -0.000000       0.000488
siesta:  280    0.482445    0.375565   -0.000000       0.000488
siesta:  281    0.503420    0.387681   -0.000000       0.000488
siesta:  282    0.524395    0.399797   -0.000000       0.000488
siesta:  283    0.545370    0.411913   -0.000000       0.000488
siesta:  284    0.566345    0.424030   -0.000000       0.000488
siesta:  285    0.587320    0.436146   -0.000000       0.000488
siesta:  286    0.608295    0.448262   -0.000000       0.000488
siesta:  287    0.629270    0.460378   -0.000000       0.000488
siesta:  288    0.650244    0.472494   -0.000000       0.000488
siesta:  289    0.671219    0.484611   -0.000000       0.000488
siesta:  290   -0.650195   -0.254488    0.000001       0.000488
siesta:  291   -0.629220   -0.242372    0.000001       0.000488
siesta:  292   -0.608245   -0.230256    0.000001       0.000488
siesta:  293   -0.587270   -0.218139    0.000001       0.000488
siesta:  294   -0.566295   -0.206023    0.000001       0.000488
siesta:  295   -0.545320   -0.193907    0.000000       0.000488
siesta:  296   -0.524346   -0.181791    0.000000       0.000488
siesta:  297   -0.503371   -0.169675    0.000000       0.000488
siesta:  298   -0.482396   -0.157558    0.000000       0.000488
siesta:  299   -0.461421   -0.145442    0.000000       0.000488
siesta:  300   -0.440446   -0.133326    0.000000       0.000488
siesta:  301   -0.419471   -0.121210    0.000000       0.000488
siesta:  302   -0.398496   -0.109094    0.000000       0.000488
siesta:  303   -0.377521   -0.096977    0.000000       0.000488
siesta:  304   -0.356546   -0.084861    0.000000       0.000488
siesta:  305   -0.335571   -0.072745    0.000000       0.000488
siesta:  306   -0.314596   -0.060629    0.000000       0.000488
siesta:  307   -0.293621   -0.048512    0.000000       0.000488
siesta:  308   -0.272646   -0.036396    0.000000       0.000488
siesta:  309   -0.251672   -0.024280    0.000000       0.000488
siesta:  310   -0.230697   -0.012164    0.000000       0.000488
siesta:  311   -0.209722   -0.000048    0.000000       0.000488
siesta:  312   -0.188747    0.012069    0.000000       0.000488
siesta:  313   -0.167772    0.024185    0.000000       0.000488
siesta:  314   -0.146797    0.036301    0.000000       0.000488
siesta:  315   -0.125822    0.048417    0.000000       0.000488
siesta:  316   -0.104847    0.060534    0.000000       0.000488
siesta:  317   -0.083872    0.072650    0.000000       0.000488
siesta:  318   -0.062897    0.084766    0.000000       0.000488
siesta:  319   -0.041922    0.096882    0.000000       0.000488
siesta:  320   -0.020947    0.108998    0.000000       0.000488
siesta:  321    0.000027    0.121115    0.000000       0.000488
siesta:  322    0.021002    0.133231    0.000000       0.000488
siesta:  323    0.041977    0.145347    0.000000       0.000488
siesta:  324    0.062952    0.157463    0.000000       0.000488
siesta:  325    0.083927    0.169579    0.000000       0.000488
siesta:  326    0.104902    0.181696   -0.000000       0.000488
siesta:  327    0.125877    0.193812   -0.000000       0.000488
siesta:  328    0.146852    0.205928   -0.000000       0.000488
siesta:  329    0.167827    0.218044   -0.000000       0.000488
siesta:  330    0.188802    0.230161   -0.000000       0.000488
siesta:  331    0.209777    0.242277   -0.000000       0.000488
siesta:  332    0.230752    0.254393   -0.000000       0.000488
siesta:  333    0.251726    0.266509   -0.000000       0.000488
siesta:  334    0.272701    0.278625   -0.000000       0.000488
siesta:  335    0.293676    0.290742   -0.000000       0.000488
siesta:  336    0.314651    0.302858   -0.000000       0.000488
siesta:  337    0.335626    0.314974   -0.000000       0.000488
siesta:  338    0.356601    0.327090   -0.000000       0.000488
siesta:  339    0.377576    0.339207   -0.000000       0.000488
siesta:  340    0.398551    0.351323   -0.000000       0.000488
siesta:  341    0.419526    0.363439   -0.000000       0.000488
siesta:  342    0.440501    0.375555   -0.000000       0.000488
siesta:  343    0.461476    0.387671   -0.000000       0.000488
siesta:  344    0.482451    0.399788   -0.000000       0.000488
siesta:  345    0.503426    0.411904   -0.000000       0.000488
siesta:  346    0.524400    0.424020   -0.000000       0.000488
siesta:  347    0.545375    0.436136   -0.000000       0.000488
siesta:  348    0.566350    0.448252   -0.000000       0.000488
siesta:  349    0.587325    0.460369   -0.000000       0.000488
siesta:  350    0.608300    0.472485   -0.000000       0.000488
siesta:  351    0.629275    0.484601   -0.000000       0.000488
siesta:  352    0.650250    0.496717   -0.000000       0.000488
siesta:  353    0.671225    0.508834   -0.000000       0.000488
siesta:  354   -0.650190   -0.230265    0.000001       0.000488
siesta:  355   -0.629215   -0.218149    0.000001       0.000488
siesta:  356   -0.608240   -0.206033    0.000001       0.000488
siesta:  357   -0.587265   -0.193917    0.000001       0.000488
siesta:  358   -0.566290   -0.181800    0.000001       0.000488
siesta:  359   -0.545315   -0.169684    0.000001       0.000488
siesta:  360   -0.524340   -0.157568    0.000000       0.000488
siesta:  361   -0.503365   -0.145452    0.000000       0.000488
siesta:  362   -0.482390   -0.133335    0.000000       0.000488
siesta:  363   -0.461415   -0.121219    0.000000       0.000488
siesta:  364   -0.440440   -0.109103    0.000000       0.000488
siesta:  365   -0.419465   -0.096987    0.000000       0.000488
siesta:  366   -0.398491   -0.084871    0.000000       0.000488
siesta:  367   -0.377516   -0.072754    0.000000       0.000488
siesta:  368   -0.356541   -0.060638    0.000000       0.000488
siesta:  369   -0.335566   -0.048522    0.000000       0.000488
siesta:  370   -0.314591   -0.036406    0.000000       0.000488
siesta:  371   -0.293616   -0.024290    0.000000       0.000488
siesta:  372   -0.272641   -0.012173    0.000000       0.000488
siesta:  373   -0.251666   -0.000057    0.000000       0.000488
siesta:  374   -0.230691    0.012059    0.000000       0.000488
siesta:  375   -0.209716    0.024175    0.000000       0.000488
siesta:  376   -0.188741    0.036292    0.000000       0.000488
siesta:  377   -0.167766    0.048408    0.000000       0.000488
siesta:  378   -0.146791    0.060524    0.000000       0.000488
siesta:  379   -0.125817    0.072640    0.000000       0.000488
siesta:  380   -0.104842    0.084756    0.000000       0.000488
siesta:  381   -0.083867    0.096873    0.000000       0.000488
siesta:  382   -0.062892    0.108989    0.000000       0.000488
siesta:  383   -0.041917    0.121105    0.000000       0.000488
siesta:  384   -0.020942    0.133221    0.000000       0.000488
siesta:  385    0.000033    0.145338    0.000000       0.000488
siesta:  386    0.021008    0.157454    0.000000       0.000488
siesta:  387    0.041983    0.169570    0.000000       0.000488
siesta:  388    0.062958    0.181686    0.000000       0.000488
siesta:  389    0.083933    0.193802    0.000000       0.000488
siesta:  390    0.104908    0.205919    0.000000       0.000488
siesta:  391    0.125882    0.218035   -0.000000       0.000488
siesta:  392    0.146857    0.230151   -0.000000       0.000488
siesta:  393    0.167832    0.242267   -0.000000       0.000488
siesta:  394    0.188807    0.254383   -0.000000       0.000488
siesta:  395    0.209782    0.266500   -0.000000       0.000488
siesta:  396    0.230757    0.278616   -0.000000       0.000488
siesta:  397    0.251732    0.290732   -0.000000       0.000488
siesta:  398    0.272707    0.302848   -0.000000       0.000488
siesta:  399    0.293682    0.314965   -0.000000       0.000488
siesta:  400    0.314657    0.327081   -0.000000       0.000488
siesta:  401    0.335632    0.339197   -0.000000       0.000488
siesta:  402    0.356607    0.351313   -0.000000       0.000488
siesta:  403    0.377581    0.363429   -0.000000       0.000488
siesta:  404    0.398556    0.375546   -0.000000       0.000488
siesta:  405    0.419531    0.387662   -0.000000       0.000488
siesta:  406    0.440506    0.399778   -0.000000       0.000488
siesta:  407    0.461481    0.411894   -0.000000       0.000488
siesta:  408    0.482456    0.424011   -0.000000       0.000488
siesta:  409    0.503431    0.436127   -0.000000       0.000488
siesta:  410    0.524406    0.448243   -0.000000       0.000488
siesta:  411    0.545381    0.460359   -0.000000       0.000488
siesta:  412    0.566356    0.472475   -0.000000       0.000488
siesta:  413    0.587331    0.484592   -0.000000       0.000488
siesta:  414    0.608306    0.496708   -0.000000       0.000488
siesta:  415    0.629281    0.508824   -0.000000       0.000488
siesta:  416    0.650255    0.520940   -0.000000       0.000488
siesta:  417    0.671230    0.533056   -0.000000       0.000488
siesta:  418   -0.650184   -0.206042    0.000001       0.000488
siesta:  419   -0.629209   -0.193926    0.000001       0.000488
siesta:  420   -0.608234   -0.181810    0.000001       0.000488
siesta:  421   -0.587259   -0.169694    0.000001       0.000488
siesta:  422   -0.566284   -0.157577    0.000001       0.000488
siesta:  423   -0.545309   -0.145461    0.000001       0.000488
siesta:  424   -0.524335   -0.133345    0.000001       0.000488
siesta:  425   -0.503360   -0.121229    0.000000       0.000488
siesta:  426   -0.482385   -0.109113    0.000000       0.000488
siesta:  427   -0.461410   -0.096996    0.000000       0.000488
siesta:  428   -0.440435   -0.084880    0.000000       0.000488
siesta:  429   -0.419460   -0.072764    0.000000       0.000488
siesta:  430   -0.398485   -0.060648    0.000000       0.000488
siesta:  431   -0.377510   -0.048531    0.000000       0.000488
siesta:  432   -0.356535   -0.036415    0.000000       0.000488
siesta:  433   -0.335560   -0.024299    0.000000       0.000488
siesta:  434   -0.314585   -0.012183    0.000000       0.000488
siesta:  435   -0.293610   -0.000067    0.000000       0.000488
siesta:  436   -0.272635    0.012050    0.000000       0.000488
siesta:  437   -0.251661    0.024166    0.000000       0.000488
siesta:  438   -0.230686    0.036282    0.000000       0.000488
siesta:  439   -0.209711    0.048398    0.000000       0.000488
siesta:  440   -0.188736    0.060514    0.000000       0.000488
siesta:  441   -0.167761    0.072631    0.000000       0.000488
siesta:  442   -0.146786    0.084747    0.000000       0.000488
siesta:  443   -0.125811    0.096863    0.000000       0.000488
siesta:  444   -0.104836    0.108979    0.000000       0.000488
siesta:  445   -0.083861    0.121096    0.000000       0.000488
siesta:  446   -0.062886    0.133212    0.000000       0.000488
siesta:  447   -0.041911    0.145328    0.000000       0.000488
siesta:  448   -0.020936    0.157444    0.000000       0.000488
siesta:  449    0.000038    0.169560    0.000000       0.000488
siesta:  450    0.021013    0.181677    0.000000       0.000488
siesta:  451    0.041988    0.193793    0.000000       0.000488
siesta:  452    0.062963    0.205909    0.000000       0.000488
siesta:  453    0.083938    0.218025    0.000000       0.000488
siesta:  454    0.104913    0.230142    0.000000       0.000488
siesta:  455    0.125888    0.242258    0.000000       0.000488
siesta:  456    0.146863    0.254374   -0.000000       0.000488
siesta:  457    0.167838    0.266490   -0.000000       0.000488
siesta:  458    0.188813    0.278606   -0.000000       0.000488
siesta:  459    0.209788    0.290723   -0.000000       0.000488
siesta:  460    0.230763    0.302839   -0.000000       0.000488
siesta:  461    0.251737    0.314955   -0.000000       0.000488
siesta:  462    0.272712    0.327071   -0.000000       0.000488
siesta:  463    0.293687    0.339187   -0.000000       0.000488
siesta:  464    0.314662    0.351304   -0.000000       0.000488
siesta:  465    0.335637    0.363420   -0.000000       0.000488
siesta:  466    0.356612    0.375536   -0.000000       0.000488
siesta:  467    0.377587    0.387652   -0.000000       0.000488
siesta:  468    0.398562    0.399769   -0.000000       0.000488
siesta:  469    0.419537    0.411885   -0.000000       0.000488
siesta:  470    0.440512    0.424001   -0.000000       0.000488
siesta:  471    0.461487    0.436117   -0.000000       0.000488
siesta:  472    0.482462    0.448233   -0.000000       0.000488
siesta:  473    0.503437    0.460350   -0.000000       0.000488
siesta:  474    0.524411    0.472466   -0.000000       0.000488
siesta:  475    0.545386    0.484582   -0.000000       0.000488
siesta:  476    0.566361    0.496698   -0.000000       0.000488
siesta:  477    0.587336    0.508815   -0.000000       0.000488
siesta:  478    0.608311    0.520931   -0.000000       0.000488
siesta:  479    0.629286    0.533047   -0.000000       0.000488
siesta:  480    0.650261    0.545163   -0.000000       0.000488
siesta:  481    0.671236    0.557279   -0.000000       0.000488
siesta:  482   -0.650179   -0.181819    0.000001       0.000488
siesta:  483   -0.629204   -0.169703    0.000001       0.000488
siesta:  484   -0.608229   -0.157587    0.000001       0.000488
siesta:  485   -0.587254   -0.145471    0.000001       0.000488
siesta:  486   -0.566279   -0.133355    0.000001       0.000488
siesta:  487   -0.545304   -0.121238    0.000001       0.000488
siesta:  488   -0.524329   -0.109122    0.000001       0.000488
siesta:  489   -0.503354   -0.097006    0.000001       0.000488
siesta:  490   -0.482379   -0.084890    0.000000       0.000488
siesta:  491   -0.461404   -0.072773    0.000000       0.000488
siesta:  492   -0.440429   -0.060657    0.000000       0.000488
siesta:  493   -0.419454   -0.048541    0.000000       0.000488
siesta:  494   -0.398480   -0.036425    0.000000       0.000488
siesta:  495   -0.377505   -0.024309    0.000000       0.000488
siesta:  496   -0.356530   -0.012192    0.000000       0.000488
siesta:  497   -0.335555   -0.000076    0.000000       0.000488
siesta:  498   -0.314580    0.012040    0.000000       0.000488
siesta:  499   -0.293605    0.024156    0.000000       0.000488
siesta:  500   -0.272630    0.036273    0.000000       0.000488
siesta:  501   -0.251655    0.048389    0.000000       0.000488
siesta:  502   -0.230680    0.060505    0.000000       0.000488
siesta:  503   -0.209705    0.072621    0.000000       0.000488
siesta:  504   -0.188730    0.084737    0.000000       0.000488
siesta:  505   -0.167755    0.096854    0.000000       0.000488
siesta:  506   -0.146780    0.108970    0.000000       0.000488
siesta:  507   -0.125806    0.121086    0.000000       0.000488
siesta:  508   -0.104831    0.133202    0.000000       0.000488
siesta:  509   -0.083856    0.145319    0.000000       0.000488
siesta:  510   -0.062881    0.157435    0.000000       0.000488
siesta:  511   -0.041906    0.169551    0.000000       0.000488
siesta:  512   -0.020931    0.181667    0.000000       0.000488
siesta:  513    0.000044    0.193783    0.000000       0.000488
siesta:  514    0.021019    0.205900    0.000000       0.000488
siesta:  515    0.041994    0.218016    0.000000       0.000488
siesta:  516    0.062969    0.230132    0.000000       0.000488
siesta:  517    0.083944    0.242248    0.000000       0.000488
siesta:  518    0.104919    0.254364    0.000000       0.000488
siesta:  519    0.125893    0.266481    0.000000       0.000488
siesta:  520    0.146868    0.278597    0.000000       0.000488
siesta:  521    0.167843    0.290713   -0.000000       0.000488
siesta:  522    0.188818    0.302829   -0.000000       0.000488
siesta:  523    0.209793    0.314946   -0.000000       0.000488
siesta:  524    0.230768    0.327062   -0.000000       0.000488
siesta:  525    0.251743    0.339178   -0.000000       0.000488
siesta:  526    0.272718    0.351294   -0.000000       0.000488
siesta:  527    0.293693    0.363410   -0.000000       0.000488
siesta:  528    0.314668    0.375527   -0.000000       0.000488
siesta:  529    0.335643    0.387643   -0.000000       0.000488
siesta:  530    0.356618    0.399759   -0.000000       0.000488
siesta:  531    0.377592    0.411875   -0.000000       0.000488
siesta:  532    0.398567    0.423992   -0.000000       0.000488
siesta:  533    0.419542    0.436108   -0.000000       0.000488
siesta:  534    0.440517    0.448224   -0.000000       0.000488
siesta:  535    0.461492    0.460340   -0.000000       0.000488
siesta:  536    0.482467    0.472456   -0.000000       0.000488
siesta:  537    0.503442    0.484573   -0.000000       0.000488
siesta:  538    0.524417    0.496689   -0.000000       0.000488
siesta:  539    0.545392    0.508805   -0.000000       0.000488
siesta:  540    0.566367    0.520921   -0.000000       0.000488
siesta:  541    0.587342    0.533037   -0.000000       0.000488
siesta:  542    0.608317    0.545154   -0.000000       0.000488
siesta:  543    0.629292    0.557270   -0.000000       0.000488
siesta:  544    0.650266    0.569386   -0.000000       0.000488
siesta:  545    0.671241    0.581502   -0.000000       0.000488
siesta:  546   -0.650173   -0.157596    0.000001       0.000488
siesta:  547   -0.629198   -0.145480    0.000001       0.000488
siesta:  548   -0.608223   -0.133364    0.000001       0.000488
siesta:  549   -0.587248   -0.121248    0.000001       0.000488
siesta:  550   -0.566273   -0.109132    0.000001       0.000488
siesta:  551   -0.545298   -0.097015    0.000001       0.000488
siesta:  552   -0.524324   -0.084899    0.000001       0.000488
siesta:  553   -0.503349   -0.072783    0.000001       0.000488
siesta:  554   -0.482374   -0.060667    0.000001       0.000488
siesta:  555   -0.461399   -0.048550    0.000000       0.000488
siesta:  556   -0.440424   -0.036434    0.000000       0.000488
siesta:  557   -0.419449   -0.024318    0.000000       0.000488
siesta:  558   -0.398474   -0.012202    0.000000       0.000488
siesta:  559   -0.377499   -0.000086    0.000000       0.000488
siesta:  560   -0.356524    0.012031    0.000000       0.000488
siesta:  561   -0.335549    0.024147    0.000000       0.000488
siesta:  562   -0.314574    0.036263    0.000000       0.000488
siesta:  563   -0.293599    0.048379    0.000000       0.000488
siesta:  564   -0.272625    0.060495    0.000000       0.000488
siesta:  565   -0.251650    0.072612    0.000000       0.000488
siesta:  566   -0.230675    0.084728    0.000000       0.000488
siesta:  567   -0.209700    0.096844    0.000000       0.000488
siesta:  568   -0.188725    0.108960    0.000000       0.000488
siesta:  569   -0.167750    0.121077    0.000000       0.000488
siesta:  570   -0.146775    0.133193    0.000000       0.000488
siesta:  571   -0.125800    0.145309    0.000000       0.000488
siesta:  572   -0.104825    0.157425    0.000000       0.000488
siesta:  573   -0.083850    0.169541    0.000000       0.000488
siesta:  574   -0.062875    0.181658    0.000000       0.000488
siesta:  575   -0.041900    0.193774    0.000000       0.000488
siesta:  576   -0.020925    0.205890    0.000000       0.000488
siesta:  577    0.000049    0.218006    0.000000       0.000488
siesta:  578    0.021024    0.230123    0.000000       0.000488
siesta:  579    0.041999    0.242239    0.000000       0.000488
siesta:  580    0.062974    0.254355    0.000000       0.000488
siesta:  581    0.083949    0.266471    0.000000       0.000488
siesta:  582    0.104924    0.278587    0.000000       0.000488
siesta:  583    0.125899    0.290704    0.000000       0.000488
siesta:  584    0.146874    0.302820    0.000000       0.000488
siesta:  585    0.167849    0.314936    0.000000       0.000488
siesta:  586    0.188824    0.327052   -0.000000       0.000488
siesta:  587    0.209799    0.339168   -0.000000       0.000488
siesta:  588    0.230774    0.351285   -0.000000       0.000488
siesta:  589    0.251748    0.363401   -0.000000       0.000488
siesta:  590    0.272723    0.375517   -0.000000       0.000488
siesta:  591    0.293698    0.387633   -0.000000       0.000488
siesta:  592    0.314673    0.399750   -0.000000       0.000488
siesta:  593    0.335648    0.411866   -0.000000       0.000488
siesta:  594    0.356623    0.423982   -0.000000       0.000488
siesta:  595    0.377598    0.436098   -0.000000       0.000488
siesta:  596    0.398573    0.448214   -0.000000       0.000488
siesta:  597    0.419548    0.460331   -0.000000       0.000488
siesta:  598    0.440523    0.472447   -0.000000       0.000488
siesta:  599    0.461498    0.484563   -0.000000       0.000488
siesta:  600    0.482473    0.496679   -0.000000       0.000488
siesta:  601    0.503447    0.508796   -0.000000       0.000488
siesta:  602    0.524422    0.520912   -0.000000       0.000488
siesta:  603    0.545397    0.533028   -0.000000       0.000488
siesta:  604    0.566372    0.545144   -0.000000       0.000488
siesta:  605    0.587347    0.557260   -0.000000       0.000488
siesta:  606    0.608322    0.569377   -0.000000       0.000488
siesta:  607    0.629297    0.581493   -0.000000       0.000488
siesta:  608    0.650272    0.593609   -0.000000       0.000488
siesta:  609    0.671247    0.605725   -0.000000       0.000488
siesta:  610   -0.650168   -0.133374    0.000001       0.000488
siesta:  611   -0.629193   -0.121257    0.000001       0.000488
siesta:  612   -0.608218   -0.109141    0.000001       0.000488
siesta:  613   -0.587243   -0.097025    0.000001       0.000488
siesta:  614   -0.566268   -0.084909    0.000001       0.000488
siesta:  615   -0.545293   -0.072792    0.000001       0.000488
siesta:  616   -0.524318   -0.060676    0.000001       0.000488
siesta:  617   -0.503343   -0.048560    0.000001       0.000488
siesta:  618   -0.482368   -0.036444    0.000001       0.000488
siesta:  619   -0.461393   -0.024328    0.000001       0.000488
siesta:  620   -0.440418   -0.012211    0.000000       0.000488
siesta:  621   -0.419443   -0.000095    0.000000       0.000488
siesta:  622   -0.398469    0.012021    0.000000       0.000488
siesta:  623   -0.377494    0.024137    0.000000       0.000488
siesta:  624   -0.356519    0.036254    0.000000       0.000488
siesta:  625   -0.335544    0.048370    0.000000       0.000488
siesta:  626   -0.314569    0.060486    0.000000       0.000488
siesta:  627   -0.293594    0.072602    0.000000       0.000488
siesta:  628   -0.272619    0.084718    0.000000       0.000488
siesta:  629   -0.251644    0.096835    0.000000       0.000488
siesta:  630   -0.230669    0.108951    0.000000       0.000488
siesta:  631   -0.209694    0.121067    0.000000       0.000488
siesta:  632   -0.188719    0.133183    0.000000       0.000488
siesta:  633   -0.167744    0.145299    0.000000       0.000488
siesta:  634   -0.146770    0.157416    0.000000       0.000488
siesta:  635   -0.125795    0.169532    0.000000       0.000488
siesta:  636   -0.104820    0.181648    0.000000       0.000488
siesta:  637   -0.083845    0.193764    0.000000       0.000488
siesta:  638   -0.062870    0.205881    0.000000       0.000488
siesta:  639   -0.041895    0.217997    0.000000       0.000488
siesta:  640   -0.020920    0.230113    0.000000       0.000488
siesta:  641    0.000055    0.242229    0.000000       0.000488
siesta:  642    0.021030    0.254345    0.000000       0.000488
siesta:  643    0.042005    0.266462    0.000000       0.000488
siesta:  644    0.062980    0.278578    0.000000       0.000488
siesta:  645    0.083955    0.290694    0.000000       0.000488
siesta:  646    0.104930    0.302810    0.000000       0.000488
siesta:  647    0.125904    0.314927    0.000000       0.000488
siesta:  648    0.146879    0.327043    0.000000       0.000488
siesta:  649    0.167854    0.339159    0.000000       0.000488
siesta:  650    0.188829    0.351275    0.000000       0.000488
siesta:  651    0.209804    0.363391   -0.000000       0.000488
siesta:  652    0.230779    0.375508   -0.000000       0.000488
siesta:  653    0.251754    0.387624   -0.000000       0.000488
siesta:  654    0.272729    0.399740   -0.000000       0.000488
siesta:  655    0.293704    0.411856   -0.000000       0.000488
siesta:  656    0.314679    0.423972   -0.000000       0.000488
siesta:  657    0.335654    0.436089   -0.000000       0.000488
siesta:  658    0.356629    0.448205   -0.000000       0.000488
siesta:  659    0.377603    0.460321   -0.000000       0.000488
siesta:  660    0.398578    0.472437   -0.000000       0.000488
siesta:  661    0.419553    0.484554   -0.000000       0.000488
siesta:  662    0.440528    0.496670   -0.000000       0.000488
siesta:  663    0.461503    0.508786   -0.000000       0.000488
siesta:  664    0.482478    0.520902   -0.000000       0.000488
siesta:  665    0.503453    0.533018   -0.000000       0.000488
siesta:  666    0.524428    0.545135   -0.000000       0.000488
siesta:  667    0.545403    0.557251   -0.000000       0.000488
siesta:  668    0.566378    0.569367   -0.000000       0.000488
siesta:  669    0.587353    0.581483   -0.000000       0.000488
siesta:  670    0.608328    0.593600   -0.000000       0.000488
siesta:  671    0.629302    0.605716   -0.000000       0.000488
siesta:  672    0.650277    0.617832   -0.000000       0.000488
siesta:  673    0.671252    0.629948   -0.000000       0.000488
siesta:  674   -0.650162   -0.109151    0.000001       0.000488
siesta:  675   -0.629187   -0.097034    0.000001       0.000488
siesta:  676   -0.608212   -0.084918    0.000001       0.000488
siesta:  677   -0.587237   -0.072802    0.000001       0.000488
siesta:  678   -0.566262   -0.060686    0.000001       0.000488
siesta:  679   -0.545287   -0.048570    0.000001       0.000488
siesta:  680   -0.524313   -0.036453    0.000001       0.000488
siesta:  681   -0.503338   -0.024337    0.000001       0.000488
siesta:  682   -0.482363   -0.012221    0.000001       0.000488
siesta:  683   -0.461388   -0.000105    0.000001       0.000488
siesta:  684   -0.440413    0.012012    0.000001       0.000488
siesta:  685   -0.419438    0.024128    0.000000       0.000488
siesta:  686   -0.398463    0.036244    0.000000       0.000488
siesta:  687   -0.377488    0.048360    0.000000       0.000488
siesta:  688   -0.356513    0.060476    0.000000       0.000488
siesta:  689   -0.335538    0.072593    0.000000       0.000488
siesta:  690   -0.314563    0.084709    0.000000       0.000488
siesta:  691   -0.293588    0.096825    0.000000       0.000488
siesta:  692   -0.272614    0.108941    0.000000       0.000488
siesta:  693   -0.251639    0.121058    0.000000       0.000488
siesta:  694   -0.230664    0.133174    0.000000       0.000488
siesta:  695   -0.209689    0.145290    0.000000       0.000488
siesta:  696   -0.188714    0.157406    0.000000       0.000488
siesta:  697   -0.167739    0.169522    0.000000       0.000488
siesta:  698   -0.146764    0.181639    0.000000       0.000488
siesta:  699   -0.125789    0.193755    0.000000       0.000488
siesta:  700   -0.104814    0.205871    0.000000       0.000488
siesta:  701   -0.083839    0.217987    0.000000       0.000488
siesta:  702   -0.062864    0.230103    0.000000       0.000488
siesta:  703   -0.041889    0.242220    0.000000       0.000488
siesta:  704   -0.020914    0.254336    0.000000       0.000488
siesta:  705    0.000060    0.266452    0.000000       0.000488
siesta:  706    0.021035    0.278568    0.000000       0.000488
siesta:  707    0.042010    0.290685    0.000000       0.000488
siesta:  708    0.062985    0.302801    0.000000       0.000488
siesta:  709    0.083960    0.314917    0.000000       0.000488
siesta:  710    0.104935    0.327033    0.000000       0.000488
siesta:  711    0.125910    0.339149    0.000000       0.000488
siesta:  712    0.146885    0.351266    0.000000       0.000488
siesta:  713    0.167860    0.363382    0.000000       0.000488
siesta:  714    0.188835    0.375498    0.000000       0.000488
siesta:  715    0.209810    0.387614    0.000000       0.000488
siesta:  716    0.230785    0.399731   -0.000000       0.000488
siesta:  717    0.251759    0.411847   -0.000000       0.000488
siesta:  718    0.272734    0.423963   -0.000000       0.000488
siesta:  719    0.293709    0.436079   -0.000000       0.000488
siesta:  720    0.314684    0.448195   -0.000000       0.000488
siesta:  721    0.335659    0.460312   -0.000000       0.000488
siesta:  722    0.356634    0.472428   -0.000000       0.000488
siesta:  723    0.377609    0.484544   -0.000000       0.000488
siesta:  724    0.398584    0.496660   -0.000000       0.000488
siesta:  725    0.419559    0.508776   -0.000000       0.000488
siesta:  726    0.440534    0.520893   -0.000000       0.000488
siesta:  727    0.461509    0.533009   -0.000000       0.000488
siesta:  728    0.482484    0.545125   -0.000000       0.000488
siesta:  729    0.503458    0.557241   -0.000000       0.000488
siesta:  730    0.524433    0.569358   -0.000000       0.000488
siesta:  731    0.545408    0.581474   -0.000000       0.000488
siesta:  732    0.566383    0.593590   -0.000000       0.000488
siesta:  733    0.587358    0.605706   -0.000000       0.000488
siesta:  734    0.608333    0.617822   -0.000000       0.000488
siesta:  735    0.629308    0.629939   -0.000000       0.000488
siesta:  736    0.650283    0.642055   -0.000000       0.000488
siesta:  737    0.671258    0.654171   -0.000000       0.000488
siesta:  738   -0.650157   -0.084928    0.000001       0.000488
siesta:  739   -0.629182   -0.072811    0.000001       0.000488
siesta:  740   -0.608207   -0.060695    0.000001       0.000488
siesta:  741   -0.587232   -0.048579    0.000001       0.000488
siesta:  742   -0.566257   -0.036463    0.000001       0.000488
siesta:  743   -0.545282   -0.024347    0.000001       0.000488
siesta:  744   -0.524307   -0.012230    0.000001       0.000488
siesta:  745   -0.503332   -0.000114    0.000001       0.000488
siesta:  746   -0.482357    0.012002    0.000001       0.000488
siesta:  747   -0.461382    0.024118    0.000001       0.000488
siesta:  748   -0.440407    0.036234    0.000001       0.000488
siesta:  749   -0.419432    0.048351    0.000001       0.000488
siesta:  750   -0.398458    0.060467    0.000000       0.000488
siesta:  751   -0.377483    0.072583    0.000000       0.000488
siesta:  752   -0.356508    0.084699    0.000000       0.000488
siesta:  753   -0.335533    0.096816    0.000000       0.000488
siesta:  754   -0.314558    0.108932    0.000000       0.000488
siesta:  755   -0.293583    0.121048    0.000000       0.000488
siesta:  756   -0.272608    0.133164    0.000000       0.000488
siesta:  757   -0.251633    0.145280    0.000000       0.000488
siesta:  758   -0.230658    0.157397    0.000000       0.000488
siesta:  759   -0.209683    0.169513    0.000000       0.000488
siesta:  760   -0.188708    0.181629    0.000000       0.000488
siesta:  761   -0.167733    0.193745    0.000000       0.000488
siesta:  762   -0.146759    0.205862    0.000000       0.000488
siesta:  763   -0.125784    0.217978    0.000000       0.000488
siesta:  764   -0.104809    0.230094    0.000000       0.000488
siesta:  765   -0.083834    0.242210    0.000000       0.000488
siesta:  766   -0.062859    0.254326    0.000000       0.000488
siesta:  767   -0.041884    0.266443    0.000000       0.000488
siesta:  768   -0.020909    0.278559    0.000000       0.000488
siesta:  769    0.000066    0.290675    0.000000       0.000488
siesta:  770    0.021041    0.302791    0.000000       0.000488
siesta:  771    0.042016    0.314907    0.000000       0.000488
siesta:  772    0.062991    0.327024    0.000000       0.000488
siesta:  773    0.083966    0.339140    0.000000       0.000488
siesta:  774    0.104941    0.351256    0.000000       0.000488
siesta:  775    0.125915    0.363372    0.000000       0.000488
siesta:  776    0.146890    0.375489    0.000000       0.000488
siesta:  777    0.167865    0.387605    0.000000       0.000488
siesta:  778    0.188840    0.399721    0.000000       0.000488
siesta:  779    0.209815    0.411837    0.000000       0.000488
siesta:  780    0.230790    0.423953    0.000000       0.000488
siesta:  781    0.251765    0.436070   -0.000000       0.000488
siesta:  782    0.272740    0.448186   -0.000000       0.000488
siesta:  783    0.293715    0.460302   -0.000000       0.000488
siesta:  784    0.314690    0.472418   -0.000000       0.000488
siesta:  785    0.335665    0.484535   -0.000000       0.000488
siesta:  786    0.356640    0.496651   -0.000000       0.000488
siesta:  787    0.377614    0.508767   -0.000000       0.000488
siesta:  788    0.398589    0.520883   -0.000000       0.000488
siesta:  789    0.419564    0.532999   -0.000000       0.000488
siesta:  790    0.440539    0.545116   -0.000000       0.000488
siesta:  791    0.461514    0.557232   -0.000000       0.000488
siesta:  792    0.482489    0.569348   -0.000000       0.000488
siesta:  793    0.503464    0.581464   -0.000000       0.000488
siesta:  794    0.524439    0.593580   -0.000000       0.000488
siesta:  795    0.545414    0.605697   -0.000000       0.000488
siesta:  796    0.566389    0.617813   -0.000000       0.000488
siesta:  797    0.587364    0.629929   -0.000000       0.000488
siesta:  798    0.608339    0.642045   -0.000000       0.000488
siesta:  799    0.629313    0.654162   -0.000000       0.000488
siesta:  800    0.650288    0.666278   -0.000000       0.000488
siesta:  801    0.671263    0.678394   -0.000000       0.000488
siesta:  802   -0.650151   -0.060705    0.000001       0.000488
siesta:  803   -0.629176   -0.048589    0.000001       0.000488
siesta:  804   -0.608201   -0.036472    0.000001       0.000488
siesta:  805   -0.587226   -0.024356    0.000001       0.000488
siesta:  806   -0.566251   -0.012240    0.000001       0.000488
siesta:  807   -0.545276   -0.000124    0.000001       0.000488
siesta:  808   -0.524302    0.011993    0.000001       0.000488
siesta:  809   -0.503327    0.024109    0.000001       0.000488
siesta:  810   -0.482352    0.036225    0.000001       0.000488
siesta:  811   -0.461377    0.048341    0.000001       0.000488
siesta:  812   -0.440402    0.060457    0.000001       0.000488
siesta:  813   -0.419427    0.072574    0.000001       0.000488
siesta:  814   -0.398452    0.084690    0.000001       0.000488
siesta:  815   -0.377477    0.096806    0.000000       0.000488
siesta:  816   -0.356502    0.108922    0.000000       0.000488
siesta:  817   -0.335527    0.121038    0.000000       0.000488
siesta:  818   -0.314552    0.133155    0.000000       0.000488
siesta:  819   -0.293577    0.145271    0.000000       0.000488
siesta:  820   -0.272603    0.157387    0.000000       0.000488
siesta:  821   -0.251628    0.169503    0.000000       0.000488
siesta:  822   -0.230653    0.181620    0.000000       0.000488
siesta:  823   -0.209678    0.193736    0.000000       0.000488
siesta:  824   -0.188703    0.205852    0.000000       0.000488
siesta:  825   -0.167728    0.217968    0.000000       0.000488
siesta:  826   -0.146753    0.230084    0.000000       0.000488
siesta:  827   -0.125778    0.242201    0.000000       0.000488
siesta:  828   -0.104803    0.254317    0.000000       0.000488
siesta:  829   -0.083828    0.266433    0.000000       0.000488
siesta:  830   -0.062853    0.278549    0.000000       0.000488
siesta:  831   -0.041878    0.290666    0.000000       0.000488
siesta:  832   -0.020904    0.302782    0.000000       0.000488
siesta:  833    0.000071    0.314898    0.000000       0.000488
[...]
   70.8574   71.8548   84.2557  102.3013  133.4940  145.9457
 112  1  -18.6332  -15.0057  -11.6592   -6.2448   -1.1288    6.3323   11.1569   11.9189   13.3228   17.3777
          18.2028   20.9495   21.4228   23.8952   35.5717   39.0798   44.1034   51.5851   54.8638   61.6037
   70.2019   75.3051   90.2288  106.8700  136.0404  153.9598
 113  1  -17.8126  -15.3887  -12.7316   -5.4113   -1.9480    7.8379   10.8149   10.8851   13.4703   18.3302
          18.5803   20.4330   20.9913   22.3778   35.2792   40.9344   47.6449   49.6711   55.2520   64.6347
   69.6630   78.1181  102.2794  111.9470  141.8950  170.0467
 114  1  -16.9498  -15.7242  -13.6709   -4.5315   -2.7895    9.3474   10.0440   10.6929   13.0776   19.0174
          19.1470   20.1620   20.4154   21.2569   34.8447   43.0912   47.5666   51.3707   55.0576   66.8169
   69.0039   79.9361  115.4256  125.1843  147.5527  193.0642
 115  1  -16.2035  -16.1837  -14.1000   -3.6617   -3.6400    9.7693   10.3714   10.4165   12.6301   19.6740
          19.6987   19.7770   19.7864   20.8357   34.6963   45.3331   45.3580   53.8709   53.9671   68.0678
   68.1124   80.5684  116.7428  145.4074  145.7293  206.3963
 116  1  -16.9608  -15.7061  -13.6785   -4.5487   -2.7701    9.3691   10.0395   10.6653   13.0915   19.0145
          19.1416   20.1718   20.4250   21.2336   34.8644   43.1128   47.5451   51.4600   54.9955   66.7586
   69.0125   79.9554  115.4065  125.4527  147.3990  193.0135
 117  1  -17.8196  -15.3750  -12.7395   -5.4263   -1.9292    7.8519   10.8065   10.8695   13.4855   18.3410
          18.5781   20.4032   21.0011   22.3681   35.3198   40.9564   47.7165   49.6498   55.2121   64.5776
   69.6505   78.1548  102.4486  111.9008  141.7997  170.0325
 118  1  -18.6379  -14.9955  -11.6664   -6.2574   -1.1117    6.3441   11.1468   11.9074   13.3371   17.3888
          18.2041   20.9050   21.4314   23.8930   35.6332   39.1031   44.1450   51.5642   54.8383   61.5661
   70.1804   75.3551   90.3049  106.8213  135.9762  153.9864
 119  1  -19.0318  -15.2754  -10.1470   -6.7374   -0.8355    4.1115   12.3733   13.7999   13.8563   15.5877
          18.4476   20.7034   21.4676   27.0781   31.8933   36.0153   42.5042   54.1605   55.8230   58.0877
   70.4675   71.4816   81.5304   99.5079  138.3614  146.1561
 120  1  -19.5637  -14.6469   -9.7892   -7.2493   -0.1651    3.8465   12.1567   13.9151   13.9843   14.2508
          19.0782   20.5918   21.8934   29.2901   29.9078   36.2840   43.2672   52.9816   55.7665   57.5423
   69.3443   71.2147   80.1373   98.5294  139.0522  141.9737
 121  1  -19.9708  -13.9250   -9.8657   -7.6536    0.5046    4.2495   11.6190   12.5606   13.6232   14.4838
          19.0268   21.4264   22.1756   27.8669   32.3662   37.6218   43.5362   52.6170   53.9867   57.2837
   68.4028   71.7438   80.7135   99.3936  134.6227  142.6985
 122  1  -20.2451  -13.1609  -10.2904   -7.9316    1.0776    5.2358   10.3002   11.7710   13.1015   14.9005
          18.6308   22.2482   22.5774   26.7543   35.0340   39.6635   44.0182   51.2110   51.3376   58.9239
   68.2656   71.7008   83.9107  100.8014  123.0942  146.0503
 123  1  -20.3828  -12.5103  -10.8073   -8.0724    1.4194    6.5550    8.6574   11.5492   12.7363   15.1636
          18.3892   22.2062   23.2941   26.2243   36.6052   41.6397   45.5622   48.7426   49.1812   61.7691
   68.3312   71.1784   90.6274   99.7096  110.3759  148.3110
 124  1  -20.3824  -12.5121  -10.8054   -8.0711    1.4177    6.5461    8.6664   11.5485   12.7363   15.1603
          18.3914   22.2176   23.2917   26.2179   36.5866   41.6345   45.5444   48.7409   49.2108   61.7646
   68.3286   71.1747   90.6016   99.7644  110.4113  148.3121
 125  1  -20.2440  -13.1642  -10.2868   -7.9277    1.0724    5.2246   10.3127   11.7679   13.1020   14.8917
          18.6377   22.2788   22.5700   26.7372   34.9963   39.6498   43.9978   51.2062   51.3811   58.9079
   68.2560   71.7067   83.9129  100.8394  123.1843  146.0497
 126  1  -19.9690  -13.9291   -9.8613   -7.6470    0.4961    4.2374   11.6333   12.5563   13.6255   14.4705
          19.0389   21.4127   22.2177   27.8435   32.3356   37.6022   43.4968   52.6659   53.9833   57.2605
   68.3815   71.7709   80.7140   99.4332  134.7022  142.7109
 127  1  -19.5610  -14.6519   -9.7844   -7.2398   -0.1771    3.8337   12.1698   13.9099   13.9903   14.2365
          19.0910   20.5744   21.9416   29.2830   29.8657   36.2613   43.2106   53.0252   55.7701   57.5269
   69.3080   71.2508   80.1358   98.5715  138.9156  142.2184
 128  1  -19.0277  -15.2820  -10.1421   -6.7250   -0.8510    4.0983   12.3910   13.8096   13.8349   15.5815
          18.4500   20.6926   21.5196   27.0699   31.8479   35.9927   42.4517   54.1925   55.8322   58.0846
   70.5007   71.4364   81.5274   99.5502  138.2527  146.4060
 129  1  -18.3857  -15.7887  -10.8711   -6.1327   -1.4731    4.9621   12.2203   12.8987   13.9956   16.6916
          18.2359   20.8488   21.1307   24.9183   34.1668   36.8586   41.9669   54.4679   56.2158   58.7274
   69.8788   74.2355   84.4842  102.8617  140.8865  151.9606
 130  1  -17.6818  -16.1302  -11.8242   -5.5101   -2.0202    6.2594   11.6759   11.8709   14.0396   17.4557
          18.4726   20.7952   20.9801   23.0702   35.2665   38.6167   43.7664   52.3215   56.8123   61.3127
   69.4782   76.8967   90.0898  107.8769  147.5615  160.8489
 131  1  -17.1067  -16.1507  -12.8389   -4.9328   -2.4766    7.7969   10.6301   11.4327   13.6179   18.1537
          18.8500   20.6059   21.0320   21.5524   35.1057   40.8841   47.7744   49.8496   56.1772   64.6912
   69.2348   78.8915  102.5562  112.6899  153.6496  175.4030
 132  1  -16.9558  -15.7141  -13.6753   -4.5398   -2.7800    9.3487   10.0412   10.6928   13.0810   19.0102
          19.1467   20.1796   20.4179   21.2377   34.8532   43.1041   47.5525   51.4015   55.0368   66.7917
   69.0039   79.9478  115.4212  125.1639  147.6898  193.0697
 133  1  -16.9608  -15.7061  -13.6785   -4.5487   -2.7701    9.3691   10.0395   10.6653   13.0915   19.0145
          19.1416   20.1718   20.4250   21.2336   34.8644   43.1128   47.5451   51.4600   54.9955   66.7586
   69.0125   79.9554  115.4065  125.4527  147.3990  193.0134
 134  1  -17.1211  -16.1323  -12.8437   -4.9504   -2.4564    7.8132   10.6251   11.4052   13.6395   18.1586
          18.8415   20.6201   20.9921   21.5652   35.1399   40.8981   47.8433   49.8395   56.1453   64.6362
   69.2303   78.9139  102.7274  112.6554  153.5092  175.2262
 135  1  -17.6921  -16.1164  -11.8290   -5.5279   -1.9989    6.2737   11.6681   11.8488   14.0631   17.4631
          18.4666   20.8094   20.9333   23.0761   35.3238   38.6337   43.8101   52.3111   56.8039   61.2633
   69.4572   76.9318   90.1613  107.8336  147.6098  160.5611
 136  1  -18.3920  -15.7796  -10.8760   -6.1481   -1.4542    4.9757   12.2011   12.8888   14.0187   16.7001
          18.2337   20.8605   21.0777   24.9243   34.2275   36.8787   42.0030   54.4575   56.2071   58.7004
   69.8499   74.2793   84.5053  102.8192  140.9878  151.6769
 137  1  -18.5854  -15.9431  -10.0005   -6.3983   -1.3518    3.7393   12.7879   14.2570   14.6202   15.5728
          18.3664   20.2118   21.2098   28.5109   29.6601   35.0530   42.4721   53.8565   57.2816   58.4730
   70.0354   71.7367   81.0298   98.1412  137.3926  150.2762
 138  1  -19.0318  -15.2754  -10.1470   -6.7374   -0.8355    4.1115   12.3733   13.7999   13.8563   15.5877
          18.4476   20.7034   21.4676   27.0781   31.8933   36.0153   42.5042   54.1605   55.8230   58.0877
   70.4675   71.4816   81.5304   99.5079  138.3614  146.1561
 139  1  -19.3625  -14.5135  -10.6550   -7.0088   -0.3026    5.0800   11.4651   12.8897   13.0024   16.0724
          18.2547   21.5694   21.6014   25.7324   34.5728   37.8771   42.8392   53.1220   53.8798   58.9811
   70.8325   71.9117   84.2830  102.2548  133.4360  146.0097
 140  1  -19.5641  -13.7438  -11.3334   -7.1816    0.1127    6.4648    9.9553   12.3155   12.4393   16.5298
          18.0747   21.4729   22.3320   24.9780   36.1542   40.0794   44.7871   50.2608   51.9076   61.8612
   70.8680   72.3776   90.5202  104.4369  120.5351  150.5841
 141  1  -19.6314  -13.3051  -11.7526   -7.2397    0.2713    7.7372    8.6138   12.0475   12.3166   16.7176
          18.0106   21.3908   22.6035   24.7475   36.4973   41.3078   46.8012   48.7901   50.1640   63.7453
   70.6522   72.5584  100.3114  100.9223  111.7173  153.2434
 142  1  -19.5632  -13.7463  -11.3310   -7.1781    0.1082    6.4519    9.9705   12.3161   12.4363   16.5202
          18.0795   21.4992   22.3254   24.9666   36.1204   40.0724   44.7566   50.2570   51.9545   61.8578
   70.8631   72.3719   90.4893  104.4736  120.6731  150.5973
 143  1  -19.3605  -14.5171  -10.6518   -7.0016   -0.3115    5.0667   11.4843   12.8822   13.0039   16.0571
          18.2643   21.5886   21.6134   25.7140   34.5260   37.8642   42.8107   53.1159   53.9330   58.9614
   70.8453   71.8985   84.2818  102.2907  133.5593  146.0846
 144  1  -19.0284  -15.2803  -10.1433   -6.7264   -0.8486    4.0977   12.3921   13.8035   13.8482   15.5698
          18.4611   20.6853   21.5198   27.0584   31.8569   35.9979   42.4550   54.2128   55.8182   58.0625
   70.4969   71.4583   81.5371   99.5466  138.2754  146.4649
 145  1  -18.5799  -15.9501   -9.9965   -6.3836   -1.3690    3.7252   12.8076   14.2641   14.6024   15.5603
          18.3768   20.1940   21.2665   28.5077   29.6138   35.0335   42.4074   53.9023   57.2811   58.4551
   70.0695   71.7035   81.0406   98.1807  137.2871  150.6292
 146  1  -18.0576  -16.4618  -10.2861   -6.0243   -1.7712    4.0248   12.8228   13.9077   14.6728   16.1949
          18.1920   20.2946   21.0506   26.5583   31.5838   35.2346   41.8654   55.0836   56.8538   58.4962
   69.6728   73.0756   82.0625   99.3142  138.1032  154.3920
 147  1  -17.6593  -16.6149  -10.9464   -5.7158   -1.9890    4.9249   12.4734   12.8468   14.5598   16.7604
          18.2988   20.5445   21.0161   24.5678   34.0413   36.5419   41.6681   54.9390   57.7768   57.9453
   69.4302   75.0685   84.5793  102.9725  141.9993  158.0899
 148  1  -17.6842  -16.1266  -11.8256   -5.5128   -2.0166    6.2587   11.6726   11.8741   14.0433   17.4508
          18.4765   20.7933   20.9842   23.0613   35.2721   38.6215   43.7672   52.3134   56.8270   61.2943
   69.4715   76.9100   90.1016  107.8686  147.6187  160.8906
 149  1  -17.8165  -15.3805  -12.7365   -5.4179   -1.9391    7.8353   10.8089   10.8936   13.4739   18.3252
          18.5843   20.4384   20.9915   22.3604   35.2937   40.9486   47.6579   49.6525   55.2515   64.6091
   69.6473   78.1437  102.2989  111.9183  142.0663  170.1094
 150  1  -17.8705  -14.9145  -13.2553   -5.3958   -1.8883    9.4533    9.4738   10.4926   13.2665   18.6146
          19.1075   19.6587   21.0720   22.2526   35.2096   42.2754   48.2179   50.0254   54.0002   66.0362
   69.6925   78.5755  112.8739  121.6399  124.5258  178.0561
 151  1  -17.8196  -15.3750  -12.7395   -5.4263   -1.9292    7.8519   10.8065   10.8695   13.4855   18.3410
          18.5781   20.4032   21.0011   22.3681   35.3198   40.9564   47.7165   49.6498   55.2121   64.5776
   69.6505   78.1548  102.4486  111.9008  141.7997  170.0324
 152  1  -17.6921  -16.1164  -11.8290   -5.5279   -1.9989    6.2737   11.6681   11.8488   14.0631   17.4631
          18.4666   20.8094   20.9333   23.0761   35.3238   38.6337   43.8101   52.3111   56.8039   61.2633
   69.4572   76.9318   90.1613  107.8336  147.6098  160.5611
 153  1  -17.6734  -16.5989  -10.9501   -5.7342   -1.9678    4.9394   12.4503   12.8402   14.5843   16.7699
          18.2895   20.5618   20.9600   24.5797   34.0992   36.5579   41.7045   54.9370   57.7431   57.9467
   69.4020   75.0995   84.5917  102.9348  142.0938  157.6898
 154  1  -18.0672  -16.4506  -10.2900   -6.0420   -1.7507    4.0391   12.8009   13.8994   14.6986   16.2038
          18.1852   20.3102   20.9919   26.5687   31.6281   35.2535   41.9215   55.0466   56.8518   58.5068
   69.6397   73.1116   82.0553   99.2759  138.2072  154.0136
 155  1  -18.0672  -16.4506  -10.2900   -6.0420   -1.7507    4.0391   12.8009   13.8994   14.6986   16.2038
          18.1852   20.3102   20.9919   26.5687   31.6281   35.2535   41.9215   55.0466   56.8518   58.5068
   69.6397   73.1116   82.0553   99.2759  138.2072  154.0136
 156  1  -18.3920  -15.7796  -10.8760   -6.1481   -1.4542    4.9757   12.2011   12.8888   14.0187   16.7001
          18.2337   20.8605   21.0777   24.9243   34.2275   36.8787   42.0030   54.4575   56.2071   58.7004
   69.8499   74.2793   84.5053  102.8192  140.9878  151.6769
 157  1  -18.6379  -14.9955  -11.6664   -6.2574   -1.1117    6.3441   11.1468   11.9074   13.3371   17.3888
          18.2041   20.9050   21.4314   23.8930   35.6332   39.1031   44.1450   51.5642   54.8383   61.5661
   70.1804   75.3551   90.3049  106.8213  135.9762  153.9863
 158  1  -18.7654  -14.2879  -12.4010   -6.3226   -0.8833    7.9439    9.6617   11.3201   13.0107   17.9600
          18.1710   20.5285   21.7750   23.4858   35.8440   41.1067   47.4148   49.1982   52.7812   64.4669
   70.2663   75.9577  101.5742  109.1151  121.2846  161.4207
 159  1  -18.7647  -14.2899  -12.3994   -6.3200   -0.8866    7.9288    9.6790   11.3208   13.0078   17.9504
          18.1736   20.5470   21.7709   23.4808   35.8288   41.1032   47.3764   49.1976   52.8182   64.4764
   70.2597   75.9539  101.4612  109.1409  121.4660  161.4332
 160  1  -18.6356  -14.9995  -11.6637   -6.2497   -1.1212    6.3295   11.1681   11.9095   13.3277   17.3713
          18.2116   20.9488   21.4199   23.8789   35.5888   39.0941   44.1066   51.5616   54.8834   61.5726
   70.1828   75.3433   90.2609  106.8510  136.1694  154.0705
 161  1  -18.3874  -15.7858  -10.8728   -6.1353   -1.4692    4.9613   12.2239   12.8924   14.0043   16.6825
          18.2452   20.8435   21.1325   24.9075   34.1742   36.8651   41.9692   54.4537   56.2593   58.6814
   69.8712   74.2589   84.4995  102.8545  140.9395  152.0247
 162  1  -18.0584  -16.4608  -10.2865   -6.0250   -1.7701    4.0246   12.8231   13.9052   14.6789   16.1892
          18.1968   20.2914   21.0512   26.5540   31.5869   35.2364   41.8664   55.0926   56.8489   58.4868
   69.6711   73.0833   82.0663   99.3128  138.1175  154.4068
 163  1  -17.8435  -16.7938  -10.0680   -5.9783   -1.8887    3.6881   13.0466   14.3783   14.8763   16.0707
          18.1190   20.0676   20.9753   28.1954   29.5252   34.6383   42.1176   54.2099   57.8252   58.7569
   69.6345   72.5318   81.4109   97.9183  136.8636  154.9563
 164  1  -18.0584  -16.4608  -10.2865   -6.0250   -1.7701    4.0246   12.8231   13.9052   14.6789   16.1892
          18.1968   20.2914   21.0512   26.5540   31.5869   35.2364   41.8664   55.0926   56.8489   58.4868
   69.6711   73.0833   82.0663   99.3128  138.1175  154.4068
 165  1  -18.3874  -15.7858  -10.8728   -6.1353   -1.4692    4.9613   12.2239   12.8924   14.0043   16.6825
          18.2452   20.8435   21.1325   24.9075   34.1742   36.8651   41.9692   54.4537   56.2593   58.6814
   69.8712   74.2589   84.4995  102.8545  140.9395  152.0247
 166  1  -18.6356  -14.9995  -11.6637   -6.2497   -1.1212    6.3295   11.1681   11.9095   13.3277   17.3713
          18.2116   20.9488   21.4199   23.8789   35.5888   39.0941   44.1066   51.5616   54.8834   61.5726
   70.1828   75.3433   90.2609  106.8510  136.1694  154.0705
 167  1  -18.7647  -14.2899  -12.3994   -6.3200   -0.8866    7.9288    9.6790   11.3208   13.0078   17.9504
          18.1736   20.5470   21.7709   23.4808   35.8288   41.1032   47.3764   49.1976   52.8182   64.4764
   70.2597   75.9539  101.4612  109.1409  121.4660  161.4332
 168  1  -18.7654  -14.2879  -12.4010   -6.3226   -0.8833    7.9439    9.6617   11.3201   13.0107   17.9600
          18.1710   20.5285   21.7750   23.4858   35.8440   41.1067   47.4148   49.1982   52.7812   64.4669
   70.2663   75.9577  101.5742  109.1151  121.2846  161.4207
 169  1  -18.6379  -14.9955  -11.6664   -6.2574   -1.1117    6.3441   11.1468   11.9074   13.3371   17.3888
          18.2041   20.9050   21.4314   23.8930   35.6332   39.1031   44.1450   51.5642   54.8383   61.5661
   70.1804   75.3551   90.3049  106.8213  135.9762  153.9863
 170  1  -18.3920  -15.7796  -10.8760   -6.1481   -1.4542    4.9757   12.2011   12.8888   14.0187   16.7001
          18.2337   20.8605   21.0777   24.9243   34.2275   36.8787   42.0030   54.4575   56.2071   58.7004
   69.8499   74.2793   84.5053  102.8192  140.9878  151.6769
 171  1  -18.0672  -16.4506  -10.2900   -6.0420   -1.7507    4.0391   12.8009   13.8994   14.6986   16.2038
          18.1852   20.3102   20.9919   26.5687   31.6281   35.2535   41.9215   55.0466   56.8518   58.5068
   69.6397   73.1116   82.0553   99.2759  138.2072  154.0136
 172  1  -17.8576  -16.7784  -10.0717   -5.9970   -1.8675    3.7027   13.0238   14.3707   14.9010   16.0825
          18.1095   20.0855   20.9140   28.1971   29.5729   34.6568   42.1852   54.1637   57.8270   58.7759
   69.6014   72.5639   81.3943   97.8808  136.9565  154.5599
siesta: Fermi energy =      -3.650892 eV
siesta: PDOS info: 
siesta: e1, e2, sigma, nhist:   -15.00 eV   15.00 eV    0.10 eV    500

siesta: Program's energy decomposition (eV):
siesta: Ebs     =      -101.820757
siesta: Eions   =       524.139309
siesta: Ena     =       116.076595
siesta: Ekin    =       219.369671
siesta: Enl     =       -21.894956
siesta: Eso     =         0.000000
siesta: Eldau   =         0.000000
siesta: DEna    =        -4.311947
siesta: DUscf   =         0.419350
siesta: DUext   =         0.000000
siesta: Exc     =       -95.283612
siesta: eta*DQ  =         0.000000
siesta: Emadel  =         0.000000
siesta: Emeta   =         0.000000
siesta: Emolmec =         0.000000
siesta: Ekinion =         0.000000
siesta: Eharris =      -309.764208
siesta: Etot    =      -309.764208
siesta: FreeEng =      -309.764636

siesta: Final energy (eV):
siesta:  Band Struct. =    -101.820757
siesta:       Kinetic =     219.369671
siesta:       Hartree =    1532.754027
siesta:       Eldau   =       0.000000
siesta:       Eso     =       0.000000
siesta:    Ext. field =       0.000000
siesta:   Exch.-corr. =     -95.283612
siesta:  Ion-electron =   -3262.641421
siesta:       Ion-ion =    1296.037127
siesta:       Ekinion =       0.000000
siesta:         Total =    -309.764208
siesta:         Fermi =      -3.650892

siesta: Atomic forces (eV/Ang):
siesta:      1    0.049359   -0.028498   -0.001817
siesta:      2   -0.048542    0.028026    0.007327
siesta: ----------------------------------------
siesta:    Tot    0.000817   -0.000472    0.005510

siesta: Stress tensor (static) (eV/Ang**3):
siesta:     0.000193   -0.000252   -0.000004
siesta:    -0.000252   -0.000098    0.000002
siesta:    -0.000004    0.000002    0.000030

siesta: Cell volume =        106.254548 Ang**3

siesta: Pressure (static):
siesta:                Solid            Molecule  Units
siesta:          -0.00000045         -0.00000183  Ry/Bohr**3
siesta:          -0.00004159         -0.00016820  eV/Ang**3
siesta:          -0.06663246         -0.26949552  kBar
(Free)E+ p_basis*V_orbitals  =        -309.177553
(Free)Eharris+ p_basis*V_orbitals  =        -309.177553

siesta: Electric dipole (a.u.)  =    0.000000   -0.000000   -0.000008
siesta: Electric dipole (Debye) =    0.000000   -0.000000   -0.000020

Hirshfeld Net Atomic Populations:
Atom #    Qatom  Species
     1   -0.000  C                   
     2    0.000  C                   

Voronoi Net Atomic Populations:
Atom #    Qatom  Species
     1    0.004  C                   
     2   -0.004  C                   

cite: Please see "graphene.bib" for an exhaustive BiBTeX file.
cite: This calculation has made use of the following articles.
cite: Articles are encouraged to be cited in a published work.
        Primary SIESTA paper
          DOI: www.doi.org/10.1088/0953-8984/14/11/302                                     

>> End of run:  20-APR-2024  14:44:51
Job completed
