Siesta Version  : siesta-4.1b4-124
Architecture    : gfortran-full-options
Compiler version: GNU Fortran (Ubuntu 7.5.0-3ubuntu1~18.04) 7.5.0
Compiler flags  : mpif90 -O2
PP flags        : -DF2003  -DNCDF -DNCDF_4 -DCDF  -DMPI -DMPI_TIMING
Libraries       :  libncdf.a libfdict.a  -lnetcdff -lnetcdf -lscalapack-openmpi -lblacsF77init--openmpi -lblacsCinit-openmpi -lblacs-openmpi -llapack -lblas
PARALLEL version
NetCDF support
NetCDF-4 support

* Running on 6 nodes in parallel
>> Start of run:  20-APR-2024  14:44:41

                           ***********************       
                           *  WELCOME TO SIESTA  *       
                           ***********************       

reinit: Reading from standard input
reinit: Dumped input in INPUT_TMP.35997
************************** Dump of input data file ****************************
        # -- NAME & LABEL --
SystemName       relaxation
SystemLabel      graphene
        # -- MATERIAL --
NumberOfAtoms    2
NumberOfSpecies  1
%block ChemicalSpeciesLabel
    1    6  C
%endblock ChemicalSpeciesLabel
       # -- CELL & ATOMIC POSITIONS
LatticeConstant 1.0 Ang
%block LatticeParameters
  2.460000  2.460000  20.000000  90.000000  90.000000  120.000000
%endblock LatticeParameters
AtomicCoordinatesFormat NotScaledCartesianAng
%block AtomicCoordinatesAndAtomicSpecies
     0.000000000     0.000000000     9.700000000    1
    -0.000012300     1.420288764     9.700000000    1
%endblock AtomicCoordinatesAndAtomicSpecies
       # --MONKHORST PACK --
%block kgrid_Monkhorst_Pack
13   0   0      0.500
0    13   0      0.500
0    0   1      0.500
%endblock kgrid_Monkhorst_Pack
       # --SELF CONSISTENT FIELD - -
MeshCutoff           200.0 Ry
PAO.BasisSize        DZP      # or DZP
PAO.BasisType        split
SolutionMethod       diagon
XC.authors           PBE
XC.functional        GGA
MaxSCFIterations     200
DM.Tolerance         1.d-5    # 0.01 eV
DM.MixingWeight      0.05
DM.NumberPulay       5
       # --MOLECULAR DYNAMICS or CONJUGATE GRADIENT METHOD --
MD.TypeOfRun         cg     # cg: stuctural optimization
MD.NumCGsteps        200    # maximum number of cg minimization moves
MD.MaxCGDispl        0.05  Ang
MD.MaxForceTol       0.02 eV/Ang
MD.VariableCell      T      # T: true, cell relaxation; otherwise: F
MD.ConstantVolume    F
MD.UseSaveXV         T      # read the atomic positions stored in the SystemLabel.XV file
MD.UseSaveCG         T      # read the cg history information stored in the SystemLabel.CG file; used for continuation of the interrupted CG runs
WriteMDHistory       T      # store the atomic coordinates and energy,temperature, etc. in the SystemLabel.MD and SystemLabel.MDE
       # -- SPIN --
SpinPolarized        F      #If spin polarized, use T
DM.InitSpinAF        F      #gives the antiferromagnetic order if T, otherwise all spin up if F
       # -- SAVING DENSITY MATRIX FOR POST RUN --
ON.UseSAVELWF        T
DM.UseSaveDM         T
UseSaveData          T
LongOutput           T
************************** End of input data file *****************************

reinit: -----------------------------------------------------------------------
reinit: System Name: relaxation
reinit: -----------------------------------------------------------------------
reinit: System Label: graphene
reinit: -----------------------------------------------------------------------

initatom: Reading input for the pseudopotentials and atomic orbitals ----------
Species number:   1 Atomic number:    6 Label: C

Ground state valence configuration:   2s02  2p02
Reading pseudopotential information in formatted form from C.psf

Valence configuration for pseudopotential generation:
2s( 2.00) rc: 1.56
2p( 2.00) rc: 1.56
3d( 0.00) rc: 1.56
4f( 0.00) rc: 1.56
For C, standard SIESTA heuristics set lmxkb to 3
 (one more than the basis l, including polarization orbitals).
Use PS.lmax or PS.KBprojectors blocks to override.

<basis_specs>
===============================================================================
C                    Z=   6    Mass=  12.010        Charge= 0.17977+309
Lmxo=1 Lmxkb= 3    BasisType=split      Semic=F
L=0  Nsemic=0  Cnfigmx=2
          i=1  nzeta=2  polorb=0  (2s)
            splnorm:   0.15000    
               vcte:    0.0000    
               rinn:    0.0000    
               qcoe:    0.0000    
               qyuk:    0.0000    
               qwid:   0.10000E-01
                rcs:    0.0000      0.0000    
            lambdas:    1.0000      1.0000    
L=1  Nsemic=0  Cnfigmx=2
          i=1  nzeta=2  polorb=1  (2p)
            splnorm:   0.15000    
               vcte:    0.0000    
               rinn:    0.0000    
               qcoe:    0.0000    
               qyuk:    0.0000    
               qwid:   0.10000E-01
                rcs:    0.0000      0.0000    
            lambdas:    1.0000      1.0000    
-------------------------------------------------------------------------------
L=0  Nkbl=1  erefs: 0.17977+309
L=1  Nkbl=1  erefs: 0.17977+309
L=2  Nkbl=1  erefs: 0.17977+309
L=3  Nkbl=1  erefs: 0.17977+309
===============================================================================
</basis_specs>

atom: Called for C                     (Z =   6)

read_vps: Pseudopotential generation method:
read_vps: ATM 3.2.2 Troullier-Martins                       
Total valence charge:    4.00000

xc_check: Exchange-correlation functional:
xc_check: GGA Perdew, Burke & Ernzerhof 1996
V l=0 = -2*Zval/r beyond r=  1.5227
V l=1 = -2*Zval/r beyond r=  1.5227
V l=2 = -2*Zval/r beyond r=  1.5227
V l=3 = -2*Zval/r beyond r=  1.5227
All V_l potentials equal beyond r=  1.4851
This should be close to max(r_c) in ps generation
All pots = -2*Zval/r beyond r=  1.5227

VLOCAL1: 99.0% of the norm of Vloc inside     19.682 Ry
VLOCAL1: 99.9% of the norm of Vloc inside     44.856 Ry
atom: Maximum radius for 4*pi*r*r*local-pseudopot. charge    1.79142
atom: Maximum radius for r*vlocal+2*Zval:    1.54183
GHOST: No ghost state for L =  0
GHOST: No ghost state for L =  1
GHOST: No ghost state for L =  2
GHOST: No ghost state for L =  3

KBgen: Kleinman-Bylander projectors: 
   l= 0   rc=  1.661951   el= -1.010689   Ekb=  5.289847   kbcos=  0.316429
   l= 1   rc=  1.661951   el= -0.388490   Ekb= -4.102504   kbcos= -0.351025
   l= 2   rc=  1.747182   el=  0.001971   Ekb= -1.006005   kbcos= -0.008530
   l= 3   rc=  1.791422   el=  0.003065   Ekb= -0.421399   kbcos= -0.001072

KBgen: Total number of  Kleinman-Bylander projectors:   16
atom: -------------------------------------------------------------------------

atom: SANKEY-TYPE ORBITALS:
atom: Selected multiple-zeta basis: split     

SPLIT: Orbitals with angular momentum L= 0

SPLIT: Basis orbitals for state 2s

SPLIT: PAO cut-off radius determined from an
SPLIT: energy shift=  0.020000 Ry

   izeta = 1
                 lambda =    1.000000
                     rc =    4.088342
                 energy =   -0.990050
                kinetic =    0.909804
    potential(screened) =   -1.899854
       potential(ionic) =   -5.513925

   izeta = 2
                 rmatch =    3.347176
              splitnorm =    0.150000
                 energy =   -0.836186
                kinetic =    1.375045
    potential(screened) =   -2.211230
       potential(ionic) =   -6.057915

SPLIT: Orbitals with angular momentum L= 1

SPLIT: Basis orbitals for state 2p

SPLIT: PAO cut-off radius determined from an
SPLIT: energy shift=  0.020000 Ry

   izeta = 1
                 lambda =    1.000000
                     rc =    4.870301
                 energy =   -0.368677
                kinetic =    2.532104
    potential(screened) =   -2.900781
       potential(ionic) =   -6.401132

   izeta = 2
                 rmatch =    3.475094
              splitnorm =    0.150000
                 energy =   -0.205777
                kinetic =    3.787472
    potential(screened) =   -3.993249
       potential(ionic) =   -7.860448

POLgen: Perturbative polarization orbital with L=  2

POLgen: Polarization orbital for state 2p

   izeta = 1
                     rc =    4.870301
                 energy =    1.296521
                kinetic =    2.641128
    potential(screened) =   -1.344607
       potential(ionic) =   -4.300412
atom: Total number of Sankey-type orbitals: 13

atm_pop: Valence configuration (for local Pseudopot. screening):
 2s( 2.00)                                                            
 2p( 2.00)                                                            
Vna: chval, zval:    4.00000   4.00000

Vna:  Cut-off radius for the neutral-atom potential:   4.870301

atom: _________________________________________________________________________

prinput: Basis input ----------------------------------------------------------

PAO.BasisType split     

%block ChemicalSpeciesLabel
    1    6 C                       # Species index, atomic number, species label
%endblock ChemicalSpeciesLabel

%block PAO.Basis                 # Define Basis set
C                     2                    # Species label, number of l-shells
 n=2   0   2                         # n, l, Nzeta 
   4.088      3.347   
   1.000      1.000   
 n=2   1   2 P   1                   # n, l, Nzeta, Polarization, NzetaPol
   4.870      3.475   
   1.000      1.000   
%endblock PAO.Basis

prinput: ----------------------------------------------------------------------

Dumping basis to NetCDF file C.ion.nc
coor:   Atomic-coordinates input format  =     Cartesian coordinates
coor:                                          (in Angstroms)

ioxv: Reading coordinates and velocities from file
! Info in XV file prevails over previous structure input

siesta: Atomic coordinates (Bohr) and species
siesta:     -0.00092   0.00053  18.33113  1        1
siesta:      0.00030   2.70145  18.33041  1        2

siesta: System type = slab      

initatomlists: Number of atoms, orbitals, and projectors:      2    26    32

siesta: ******************** Simulation parameters ****************************
siesta:
siesta: The following are some of the parameters of the simulation.
siesta: A complete list of the parameters used, including default values,
siesta: can be found in file out.fdf
siesta:
redata: Spin configuration                          = none
redata: Number of spin components                   = 1
redata: Time-Reversal Symmetry                      = T
redata: Spin-spiral                                 = F
redata: Long output                                 =   T
redata: Number of Atomic Species                    =        1
redata: Charge density info will appear in .RHO file
redata: Write Mulliken Pop.                         = Atomic and Orbital charges
redata: Matel table size (NRTAB)                    =     1024
redata: Mesh Cutoff                                 =   200.0000 Ry
redata: Net charge of the system                    =     0.0000 |e|
redata: Min. number of SCF Iter                     =        0
redata: Max. number of SCF Iter                     =      200
redata: SCF convergence failure will abort job
redata: SCF mix quantity                            = Hamiltonian
redata: Mix DM or H after convergence               =   F
redata: Recompute H after scf cycle                 =   F
redata: Mix DM in first SCF step                    =   T
redata: Write Pulay info on disk                    =   F
redata: New DM Occupancy tolerance                  = 0.000000000001
redata: No kicks to SCF
redata: DM Mixing Weight for Kicks                  =     0.5000
redata: Require Harris convergence for SCF          =   F
redata: Harris energy tolerance for SCF             =     0.000100 eV
redata: Require DM convergence for SCF              =   T
redata: DM tolerance for SCF                        =     0.000010
redata: Require EDM convergence for SCF             =   F
redata: EDM tolerance for SCF                       =     0.001000 eV
redata: Require H convergence for SCF               =   T
redata: Hamiltonian tolerance for SCF               =     0.001000 eV
redata: Require (free) Energy convergence for SCF   =   F
redata: (free) Energy tolerance for SCF             =     0.000100 eV
redata: Using Saved Data (generic)                  =   T
redata: Use continuation files for DM               =   T
redata: Neglect nonoverlap interactions             =   F
redata: Method of Calculation                       = Diagonalization
redata: Electronic Temperature                      =   299.9869 K
redata: Fix the spin of the system                  =   F
redata: Dynamics option                             = CG coord. optimization
redata: Variable cell                               =   T
redata: Use continuation files for CG               =   T
redata: Max atomic displ per move                   =     0.0500 Ang
redata: Maximum number of optimization moves        =      200
redata: Force tolerance                             =     0.0200 eV/Ang
redata: Stress tolerance                            =     1.0000 GPa
mix.SCF: Pulay mixing                            = Pulay
mix.SCF:    Variant                              = stable
mix.SCF:    History steps                        = 5
mix.SCF:    Linear mixing weight                 =     0.050000
mix.SCF:    Mixing weight                        =     0.050000
mix.SCF:    SVD condition                        = 0.1000E-07
redata: Save all siesta data in one NC              =   F
redata: ***********************************************************************

%block SCF.Mixers
  Pulay
%endblock SCF.Mixers

%block SCF.Mixer.Pulay
  # Mixing method
  method pulay
  variant stable

  # Mixing options
  weight 0.0500
  weight.linear 0.0500
  history 5
%endblock SCF.Mixer.Pulay

DM_history_depth set to one: no extrapolation allowed by default for geometry relaxation
Size of DM history Fstack: 1
Total number of electrons:     8.000000
Total ionic charge:     8.000000

* ProcessorY, Blocksize:    2   4


* Orbital distribution balance (max,min):     6     4

k-point displ. along   1 input, could be:     0.50    0.00
k-point displ. along   2 input, could be:     0.50    0.00
k-point displ. along   3 input, could be:     0.50    0.00
 Kpoints in:           91 . Kpoints trimmed:           91

siesta: k-point coordinates (Bohr**-1) and weights:
siesta:    1   -0.567923   -0.268444    0.083126       0.011834
siesta:    2   -0.464662   -0.208795    0.083126       0.011834
siesta:    3   -0.361401   -0.149146    0.083126       0.011834
siesta:    4   -0.258139   -0.089497    0.083126       0.011834
siesta:    5   -0.154878   -0.029848    0.083126       0.011834
siesta:    6   -0.051617    0.029801    0.083126       0.011834
siesta:    7    0.051644    0.089450    0.083126       0.011834
siesta:    8    0.154905    0.149099    0.083126       0.011834
siesta:    9    0.258166    0.208748    0.083125       0.011834
siesta:   10    0.361427    0.268397    0.083125       0.011834
siesta:   11    0.464689    0.328047    0.083125       0.011834
siesta:   12    0.567950    0.387696    0.083125       0.011834
siesta:   13    0.671211    0.447345    0.083125       0.011834
siesta:   14   -0.567896   -0.149193    0.083126       0.011834
siesta:   15   -0.464635   -0.089544    0.083126       0.011834
siesta:   16   -0.361374   -0.029895    0.083126       0.011834
siesta:   17   -0.258112    0.029754    0.083126       0.011834
siesta:   18   -0.154851    0.089403    0.083126       0.011834
siesta:   19   -0.051590    0.149052    0.083126       0.011834
siesta:   20    0.051671    0.208702    0.083126       0.011834
siesta:   21    0.154932    0.268351    0.083126       0.011834
siesta:   22    0.258193    0.328000    0.083126       0.011834
siesta:   23    0.361454    0.387649    0.083125       0.011834
siesta:   24    0.464716    0.447298    0.083125       0.011834
siesta:   25    0.567977    0.506947    0.083125       0.011834
siesta:   26    0.671238    0.566596    0.083125       0.011834
siesta:   27   -0.567869   -0.029942    0.083126       0.011834
siesta:   28   -0.464608    0.029708    0.083126       0.011834
siesta:   29   -0.361346    0.089357    0.083126       0.011834
siesta:   30   -0.258085    0.149006    0.083126       0.011834
siesta:   31   -0.154824    0.208655    0.083126       0.011834
siesta:   32   -0.051563    0.268304    0.083126       0.011834
siesta:   33    0.051698    0.327953    0.083126       0.011834
siesta:   34    0.154959    0.387602    0.083126       0.011834
siesta:   35    0.258220    0.447251    0.083126       0.011834
siesta:   36    0.361481    0.506900    0.083126       0.011834
siesta:   37    0.464743    0.566549    0.083125       0.011834
siesta:   38    0.568004    0.626198    0.083125       0.011834
siesta:   39    0.671265    0.685847    0.083125       0.011834
siesta:   40   -0.567842    0.089310    0.083126       0.011834
siesta:   41   -0.464581    0.148959    0.083126       0.011834
siesta:   42   -0.361319    0.208608    0.083126       0.011834
siesta:   43   -0.258058    0.268257    0.083126       0.011834
siesta:   44   -0.154797    0.327906    0.083126       0.011834
siesta:   45   -0.051536    0.387555    0.083126       0.011834
siesta:   46    0.051725    0.447204    0.083126       0.011834
siesta:   47    0.154986    0.506853    0.083126       0.011834
siesta:   48    0.258247    0.566502    0.083126       0.011834
siesta:   49    0.361509    0.626151    0.083126       0.011834
siesta:   50    0.464770    0.685800    0.083126       0.011834
siesta:   51    0.568031    0.745450    0.083125       0.011834
siesta:   52    0.671292    0.805099    0.083125       0.011834
siesta:   53   -0.567815    0.208561    0.083126       0.011834
siesta:   54   -0.464554    0.268210    0.083126       0.011834
siesta:   55   -0.361292    0.327859    0.083126       0.011834
siesta:   56   -0.258031    0.387508    0.083126       0.011834
siesta:   57   -0.154770    0.447157    0.083126       0.011834
siesta:   58   -0.051509    0.506806    0.083126       0.011834
siesta:   59    0.051752    0.566455    0.083126       0.011834
siesta:   60    0.155013    0.626105    0.083126       0.011834
siesta:   61    0.258274    0.685754    0.083126       0.011834
siesta:   62    0.361536    0.745403    0.083126       0.011834
siesta:   63    0.464797    0.805052    0.083126       0.011834
siesta:   64    0.568058    0.864701    0.083126       0.011834
siesta:   65    0.671319    0.924350    0.083125       0.011834
siesta:   66   -0.567788    0.327812    0.083127       0.011834
siesta:   67   -0.464526    0.387461    0.083126       0.011834
siesta:   68   -0.361265    0.447110    0.083126       0.011834
siesta:   69   -0.258004    0.506760    0.083126       0.011834
siesta:   70   -0.154743    0.566409    0.083126       0.011834
siesta:   71   -0.051482    0.626058    0.083126       0.011834
siesta:   72    0.051779    0.685707    0.083126       0.011834
siesta:   73    0.155040    0.745356    0.083126       0.011834
siesta:   74    0.258301    0.805005    0.083126       0.011834
siesta:   75    0.361563    0.864654    0.083126       0.011834
siesta:   76    0.464824    0.924303    0.083126       0.011834
siesta:   77    0.568085    0.983952    0.083126       0.011834
siesta:   78    0.671346    1.043601    0.083126       0.011834
siesta:   79   -0.567761    0.447064    0.083127       0.005917
siesta:   80   -0.464499    0.506713    0.083127       0.005917
siesta:   81   -0.361238    0.566362    0.083126       0.005917
siesta:   82   -0.257977    0.626011    0.083126       0.005917
siesta:   83   -0.154716    0.685660    0.083126       0.005917
siesta:   84   -0.051455    0.745309    0.083126       0.005917
siesta:   85    0.051806    0.804958    0.083126       0.005917
siesta:   86    0.155067    0.864607    0.083126       0.005917
siesta:   87    0.258329    0.924256    0.083126       0.005917
siesta:   88    0.361590    0.983905    0.083126       0.005917
siesta:   89    0.464851    1.043554    0.083126       0.005917
siesta:   90    0.568112    1.103203    0.083126       0.005917
siesta:   91    0.671373    1.162852    0.083126       0.005917

siesta: k-grid: Number of k-points =    91
siesta: k-grid: Cutoff (effective) =    10.000 Ang
siesta: k-grid: Supercell and displacements
siesta: k-grid:   13   0   0      0.500
siesta: k-grid:    0  13   0      0.500
siesta: k-grid:    0   0   1      0.500

diag: Algorithm                                     = D&C
diag: Parallel over k                               =   F
diag: Use parallel 2D distribution                  =   T
diag: Parallel block-size                           = 4
diag: Parallel distribution                         =     2 x     3
diag: Used triangular part                          = Lower
diag: Absolute tolerance                            =  0.100E-15
diag: Orthogonalization factor                      =  0.100E-05
diag: Memory factor                                 =  1.0000

superc: Internal auxiliary supercell:     5 x     7 x     1  =      35
superc: Number of atoms, orbitals, and projectors:     70    910   1120


ts: **************************************************************
ts: Save H and S matrices                           =    F
ts: Save DM and EDM matrices                        =    F
ts: Only save the overlap matrix S                  =    F
ts: **************************************************************

************************ Begin: TS CHECKS AND WARNINGS ************************
************************ End: TS CHECKS AND WARNINGS **************************


                     ====================================
                        Begin CG opt. move =      0
                     ====================================

outcoor: Atomic coordinates (Ang):                          
   -0.00048668    0.00028099    9.70041275   1       1  C
    0.00015820    1.42954712    9.70003285   1       2  C

superc: Internal auxiliary supercell:     5 x     7 x     1  =      35
superc: Number of atoms, orbitals, and projectors:     70    910   1120

outcell: Unit cell vectors (Ang):
        2.477179   -0.000562    0.000003
       -1.239076    2.145019   -0.000003
        0.000023   -0.000013   19.999344

outcell: Cell vector modules (Ang)   :    2.477179    2.477179   19.999344
outcell: Cell angles (23,13,12) (deg):     90.0001     89.9999    120.0260
outcell: Cell volume (Ang**3)        :    106.2545
<dSpData1D:S at geom step 0
  <sparsity:sparsity for geom step 0
    nrows_g=26 nrows=6 sparsity=4.2337 nnzs=2862, refcount: 7>
  <dData1D:(new from dSpData1D) n=2862, refcount: 1>
refcount: 1>
new_DM -- step:     1
Initializing Density Matrix...

Attempting to read DM from file... Succeeded...
DM from file:
<dSpData2D:IO-DM: graphene.DM
  <sparsity:IO-DM: graphene.DM
    nrows_g=26 nrows=6 sparsity=4.2337 nnzs=2862, refcount: 1>
  <dData2D:(new from dSpData2D) n=2862 m=1, refcount: 1>
refcount: 1>
DM to be used:
<dSpData2D:Re-structured SpM
  <sparsity:sparsity for geom step 0
    nrows_g=26 nrows=6 sparsity=4.2337 nnzs=2862, refcount: 8>
  <dData2D:(new in restruct) n=2862 m=1, refcount: 1>
refcount: 1>
No. of atoms with KB's overlaping orbs in proc 0. Max # of overlaps:      16     157
New grid distribution:   1
           1       1:   10    1:    5    1:   30
           2       1:   10    1:    5   31:   60
           3       1:   10    1:    5   61:   90
           4       1:   10    6:   10    1:   30
           5       1:   10    6:   10   31:   60
           6       1:   10    6:   10   61:   90

InitMesh: MESH =    20 x    20 x   180 =       72000
InitMesh: (bp) =    10 x    10 x    90 =        9000
InitMesh: Mesh cutoff (required, used) =   200.000   223.880 Ry
ExtMesh (bp) on 0 =    62 x    57 x    78 =      275652
New grid distribution:   2
           1       1:   10    1:   10   41:   42
           2       1:   10    1:   10   45:   46
           3       1:   10    1:   10   49:   90
           4       1:   10    1:   10   43:   44
           5       1:   10    1:   10    1:   40
           6       1:   10    1:   10   47:   48
New grid distribution:   3
           1       1:   10    1:   10   37:   40
           2       1:   10    1:   10   45:   48
           3       1:   10    1:   10   53:   90
           4       1:   10    1:   10   41:   44
           5       1:   10    1:   10    1:   36
           6       1:   10    1:   10   49:   52
Setting up quadratic distribution...
ExtMesh (bp) on 0 =    62 x    62 x    50 =      192200
PhiOnMesh: Number of (b)points on node 0 =                  200
PhiOnMesh: nlist on node 0 =                16816

stepf: Fermi-Dirac step function

siesta: Program's energy decomposition (eV):
siesta: Ebs     =      -101.823233
siesta: Eions   =       524.139309
siesta: Ena     =       116.076595
siesta: Ekin    =       219.366672
siesta: Enl     =       -21.894464
siesta: Eso     =         0.000000
siesta: Eldau   =         0.000000
siesta: DEna    =        -4.311354
siesta: DUscf   =         0.419361
siesta: DUext   =         0.000000
siesta: Exc     =       -95.283549
siesta: eta*DQ  =         0.000000
siesta: Emadel  =         0.000000
siesta: Emeta   =         0.000000
siesta: Emolmec =         0.000000
siesta: Ekinion =         0.000000
siesta: Eharris =      -309.767886
siesta: Etot    =      -309.766048
siesta: FreeEng =      -309.766048

        iscf     Eharris(eV)        E_KS(eV)     FreeEng(eV)     dDmax    Ef(eV) dHmax(eV)
   scf:    1     -309.767886     -309.766048     -309.766048  0.002187 -3.652626  0.002380
timer: Routine,Calls,Time,% = IterSCF        1       0.275  38.40
   scf:    2     -309.766048     -309.766048     -309.766048  0.000004 -3.652630  0.002220
   scf:    3     -309.766049     -309.766048     -309.766048  0.000062 -3.652679  0.000051
   scf:    4     -309.766048     -309.766048     -309.766048  0.000005 -3.652676  0.000020

SCF Convergence by DM+H criterion
max |DM_out - DM_in|         :     0.0000053205
max |H_out - H_in|      (eV) :     0.0000201866
SCF cycle converged after 4 iterations

Using DM_out to compute the final energy and forces
No. of atoms with KB's overlaping orbs in proc 0. Max # of overlaps:      16     157

siesta: E_KS(eV) =             -309.7660

siesta: E_KS - E_eggbox =      -309.7660

siesta: Atomic forces (eV/Ang):
     1    0.008060   -0.004654   -0.001821
     2   -0.007255    0.004189    0.007328
----------------------------------------
   Tot    0.000806   -0.000465    0.005507
----------------------------------------
   Max    0.008060
   Res    0.005970    sqrt( Sum f_i^2 / 3N )
----------------------------------------
   Max    0.008060    constrained

Stress-tensor-Voigt (kbar):        0.03        0.19        0.05        0.14        0.00       -0.01
(Free)E + p*V (eV/cell)     -309.7719
Target enthalpy (eV/cell)     -309.7660

siesta: Stress tensor (static) (eV/Ang**3):
         0.000017    0.000087   -0.000004
         0.000087    0.000118    0.000002
        -0.000004    0.000002    0.000030

siesta: Pressure (static):         -0.08787142  kBar

siesta: Stress tensor (total) (eV/Ang**3):
         0.000017    0.000087   -0.000004
         0.000087    0.000118    0.000002
        -0.000004    0.000002    0.000030

siesta: Pressure (total):         -0.08787142  kBar

mulliken: Atomic and Orbital Populations:

Species: C                   
Atom  Qatom  Qorb
               2s      2s      2py     2pz     2px     2py     2pz     2px     
               3Pdxy   3Pdyz   3Pdz2   3Pdxz   3Pdx2-y2
   1  3.999   0.461   0.504   0.497   0.773   0.497   0.473   0.165   0.473
              0.046   0.031   0.002   0.031   0.046
   2  4.001   0.461   0.505   0.496   0.773   0.496   0.474   0.165   0.474
              0.046   0.031   0.002   0.031   0.046

mulliken: Qtot =        8.000

cgvc: No target stress found, assuming hydrostatic MD.TargetPressure.

cgvc: Target stress (kBar)
cgvc:        -0.000       0.000       0.000
cgvc:         0.000      -0.000       0.000
cgvc:         0.000       0.000      -0.000

iocg: Reading CG continuation file

outcoor: Relaxed atomic coordinates (Ang):                  
   -0.00048668    0.00028099    9.70041275   1       1  C
    0.00015820    1.42954712    9.70003285   1       2  C

outcell: Unit cell vectors (Ang):
        2.477179   -0.000562    0.000003
       -1.239076    2.145019   -0.000003
        0.000023   -0.000013   19.999344

outcell: Cell vector modules (Ang)   :    2.477179    2.477179   19.999344
outcell: Cell angles (23,13,12) (deg):     90.0001     89.9999    120.0260
outcell: Cell volume (Ang**3)        :    106.2545

siesta: Eigenvalues (eV):
  ik is       eps
   1  1  -19.2798  -14.9964   -9.9699   -6.9639   -0.5475    3.9554   12.3133   13.7735   13.9237   15.0708
          18.6936   20.6543   21.7104   27.8319   31.1659   36.0592   42.7969   53.6212   55.8567   57.8498
   70.4813   70.8229   80.8683   99.0213  138.2534  144.5053
   2  1  -20.5199  -13.0728   -9.5054   -8.2412    1.4353    4.1827   11.1586   11.8508   13.3714   13.5649
          19.8706   21.7233   22.6571   28.9668   31.9678   38.9191   44.3749   51.5690   52.9834   56.3416
   65.5155   72.6872   79.4620   98.5581  133.0886  143.0552
   3  1  -21.5220  -11.0784   -9.3731   -8.8219    3.5479    4.4767    9.3654   10.1147   11.6838   13.2116
          21.6380   23.0761   23.3009   30.4614   33.2160   43.7677   46.1563   49.4780   50.1412   55.2115
   58.9699   73.5933   77.7107   95.7372  125.3970  141.9206
   4  1  -22.2607  -10.2422   -9.1803   -8.0068    4.7131    5.4821    7.1797    9.2226   10.1897   12.9317
          22.8773   23.8519   25.2000   32.6473   35.2055   45.2825   47.4704   48.5540   52.0789   54.6513
   55.2369   72.9302   75.6537   88.8017  103.6100  132.1718
   5  1  -22.7230  -10.8078   -7.6496   -7.2378    4.7184    5.5300    6.9344    8.8226    9.1563   12.7445
          22.7241   26.1616   26.8995   36.0663   38.2507   43.6561   46.4417   47.4766   49.0270   55.8117
   66.0266   69.4190   73.6031   75.5292   82.1886  115.6973
   6  1  -22.9126  -11.0526   -6.8602   -6.8202    4.5743    4.7556    7.6221    8.7585    8.7701   12.6598
          22.9398   27.6597   27.7600   40.8383   41.6446   42.8739   43.4090   47.4466   47.7776   53.2629
   63.9953   65.0198   73.1882   73.5202   74.3166  109.3062
   7  1  -22.8505  -10.9707   -7.1596   -6.9418    4.6761    4.9767    7.3874    8.7737    8.8875   12.6890
          22.8247   27.1159   27.4510   38.5035   40.0484   43.2251   44.3898   47.4085   48.7245   54.9822
   65.9022   69.8641   71.2207   73.4986   75.1480  111.0967
   8  1  -22.5267  -10.5640   -8.3559   -7.5905    4.7677    6.2349    6.2861    8.9631    9.6050   12.8275
          22.7515   25.0374   26.1132   34.1683   36.5707   44.4499   47.4963   48.8240   49.0096   55.5741
   60.0901   71.9165   74.6261   82.0027   92.0817  123.7302
   9  1  -21.9250  -10.1077   -9.8432   -8.4176    4.5537    4.6190    8.2128    9.6083   10.9107   13.0634
          22.7075   23.0273   24.2296   31.4610   34.0709   45.6514   46.9256   48.8048   50.6410   55.0529
   55.5010   73.4314   76.7146   93.0541  116.0915  138.1501
  10  1  -21.0524  -12.0779   -9.1844   -8.8348    2.4933    4.3292   10.4112   10.8061   12.5284   13.3857
          20.6814   22.4579   22.9633   29.6709   32.5017   41.1212   45.2617   50.4440   51.4209   55.6609
   62.3260   73.3347   78.6333   97.5026  129.9350  143.5749
  11  1  -19.9264  -14.0533   -9.7670   -7.6054    0.4027    4.0569   11.7748   12.8763   13.7559   14.2561
          19.1953   21.1261   22.2115   28.3809   31.5053   37.2416   43.5214   52.6634   54.5445   57.1440
   68.2494   71.7740   80.1987   99.0186  136.7491  141.6836
  12  1  -18.5949  -15.8836  -10.1056   -6.3815   -1.3429    3.8862   12.7173   14.0644   14.4183   15.7517
          18.3373   20.3417   21.2725   27.4075   30.9069   35.2969   42.2595   54.2906   56.8357   58.3750
   70.0659   72.0097   81.3991   98.8007  137.7437  150.4148
  13  1  -17.9616  -16.6187  -10.1747   -6.0017   -1.8303    3.8506   12.9359   14.1389   14.7920   16.1176
          18.1642   20.1768   21.0160   27.1471   30.7793   34.9287   41.9773   54.6549   57.3429   58.6200
   69.6483   72.8095   81.7153   98.6005  137.4736  154.7243
  14  1  -19.7323  -13.9421  -10.5748   -7.3789    0.2452    5.2170   10.9633   12.3949   12.9958   15.6893
          18.3320   21.8669   22.0192   26.0152   34.8757   38.6185   43.3258   52.2016   52.8131   59.1565
   70.6538   71.2231   84.5161  102.0281  128.4289  146.0874
  15  1  -20.8531  -12.0607   -9.9455   -8.6044    2.2076    5.4479    9.1297   11.0015   13.1033   13.8400
          19.2419   22.6925   23.4736   27.6057   35.5263   41.8348   45.0225   49.3958   49.5323   59.0386
   64.8248   71.9416   83.8208   98.7418  114.8893  146.8988
  16  1  -21.7239  -10.2931   -9.6070   -9.0581    4.1027    5.5183    7.4463    9.9021   11.8308   13.0384
          21.1575   22.9872   24.8893   29.6695   36.0455   46.0846   46.1839   48.0219   48.1541   58.0963
   58.8020   71.6658   82.2133   90.4806  103.2727  147.6288
  17  1  -22.3278  -10.3230   -8.8824   -8.0324    5.0092    5.6898    6.5987    9.1713   10.1355   12.8938
          22.8295   23.7394   25.8563   32.4490   36.4359   44.8692   46.8771   48.6565   51.5578   55.8062
   57.1013   71.5111   77.2994   82.7313   97.2424  135.4943
  18  1  -22.6582  -10.7268   -7.9067   -7.3456    4.6483    5.8906    6.7139    8.8544    9.2839   12.7727
          22.7121   25.9827   26.3823   35.6615   37.0846   43.9698   47.3189   48.0142   48.7581   54.9581
   63.8353   71.8691   73.2401   81.2290   83.4898  117.1402
  19  1  -22.7230  -10.8078   -7.6496   -7.2378    4.7184    5.5300    6.9344    8.8226    9.1563   12.7445
          22.7241   26.1616   26.8995   36.0663   38.2507   43.6561   46.4417   47.4766   49.0270   55.8117
   66.0266   69.4190   73.6031   75.5292   82.1886  115.6973
  20  1  -22.5267  -10.5640   -8.3559   -7.5905    4.7677    6.2349    6.2861    8.9631    9.6050   12.8275
          22.7515   25.0374   26.1132   34.1683   36.5708   44.4499   47.4963   48.8240   49.0096   55.5741
   60.0901   71.9165   74.6261   82.0027   92.0817  123.7302
  21  1  -22.0594  -10.0013   -9.5510   -8.5219    4.9450    5.3625    6.8633    9.4851   10.9262   12.9741
          22.4082   22.9506   25.4461   30.9641   36.2221   45.5852   46.4108   48.3540   51.2111   54.8358
   58.2048   71.4607   80.4698   85.1281   99.9438  144.3837
  22  1  -21.3202  -11.1578   -9.5198   -9.1366    3.1726    5.5485    8.1748   10.4114   12.8424   13.0980
          20.0822   22.9293   24.2104   28.5800   35.7750   44.1552   45.7034   48.1277   48.5304   58.9309
   61.4155   71.8991   83.1412   95.5337  108.3295  147.3917
  23  1  -20.3212  -13.0077  -10.2875   -8.0095    1.2122    5.3374   10.0580   11.6598   13.0836   14.8273
          18.6496   22.3318   22.7306   26.7817   35.1834   39.9751   44.1615   50.8642   51.0342   59.1218
   67.8748   71.7327   84.2201  100.7450  121.2810  146.1417
  24  1  -19.0878  -14.8636  -10.7841   -6.7311   -0.6727    5.1228   11.6660   12.9076   13.1775   16.3752
          18.2077   21.3947   21.4266   25.3661   34.5594   37.6333   42.5819   53.4011   54.5809   59.1243
   70.5645   72.7939   84.6577  102.8029  136.0640  146.9632
  25  1  -17.7821  -16.4520  -10.9996   -5.7515   -1.9304    5.0185   12.4049   12.7614   14.4567   16.8110
          18.3004   20.6039   21.0266   24.4792   34.2123   36.7154   41.7612   54.6994   57.4433   58.3666
   69.4808   75.1210   84.8511  103.3167  142.3028  157.4431
  26  1  -18.4104  -15.7273  -10.9291   -6.1448   -1.4420    5.0531   12.1615   12.8099   13.9443   16.7320
          18.2442   20.8910   21.1311   24.8039   34.3412   37.0221   42.0458   54.2379   56.2269   58.8304
   69.8944   74.3525   84.7959  103.1719  141.0613  151.8332
  27  1  -19.9291  -13.0258  -11.3730   -7.5668    0.7015    7.1562    8.7436   12.0320   12.3558   16.1265
          18.0842   21.7399   22.8684   25.3029   36.6091   41.2838   46.1000   48.8603   49.8034   62.9507
   70.8526   70.9946   94.9421  101.4597  111.4101  150.6643
  28  1  -20.9202  -11.7002  -10.2091   -8.6789    2.3906    6.2501    8.1059   10.9147   12.9713   13.9582
          19.0820   22.6497   23.9172   27.3550   36.5264   43.1025   45.7536   47.9247   48.2718   60.8883
   64.7723   71.3796   88.2728   96.1295  107.1413  147.6920
  29  1  -21.6570  -10.6133   -9.5301   -8.9171    3.9107    4.9649    8.3052    9.9720   11.7636   13.1032
          21.3298   23.0136   24.3078   29.9454   34.9270   45.1305   46.2090   48.7261   48.9654   56.8490
   58.3499   72.5982   79.3752   94.3407  111.8182  145.5935
  30  1  -22.1271  -10.0836   -9.6045   -8.1278    4.5339    5.0954    7.8600    9.3526   10.3758   12.9925
          22.9365   23.9764   24.1277   32.7513   33.8572   45.6558   47.6152   48.6237   52.7297   53.4330
   54.3468   74.0731   75.0219   91.5444  116.0622  129.6603
  31  1  -22.3278  -10.3230   -8.8824   -8.0324    5.0092    5.6898    6.5987    9.1713   10.1355   12.8938
          22.8295   23.7394   25.8563   32.4490   36.4359   44.8692   46.8771   48.6565   51.5578   55.8062
   57.1013   71.5111   77.2994   82.7313   97.2424  135.4943
  32  1  -22.2607  -10.2422   -9.1803   -8.0068    4.7131    5.4821    7.1797    9.2226   10.1897   12.9317
          22.8773   23.8519   25.2000   32.6473   35.2055   45.2825   47.4704   48.5540   52.0789   54.6513
   55.2369   72.9302   75.6537   88.8017  103.6100  132.1717
  33  1  -21.9250  -10.1077   -9.8432   -8.4176    4.5537    4.6190    8.2128    9.6083   10.9107   13.0634
          22.7075   23.0273   24.2296   31.4610   34.0709   45.6514   46.9256   48.8048   50.6410   55.0529
   55.5010   73.4314   76.7146   93.0541  116.0915  138.1501
  34  1  -21.3202  -11.1578   -9.5198   -9.1366    3.1726    5.5485    8.1748   10.4114   12.8424   13.0980
          20.0822   22.9293   24.2104   28.5800   35.7750   44.1552   45.7034   48.1277   48.5304   58.9309
   61.4155   71.8991   83.1412   95.5337  108.3296  147.3917
  35  1  -20.4537  -12.3320  -10.8316   -8.1471    1.5488    6.9363    8.1273   11.4603   12.7361   15.0833
          18.4046   22.2735   23.4473   26.2826   36.7368   42.0719   46.0297   48.2954   48.5570   62.2212
   67.9220   71.0865   93.7857   96.5828  108.0727  148.2452
  36  1  -19.3431  -13.8258  -11.7542   -6.9317   -0.1691    7.1398    9.5984   11.9586   12.5979   17.0398
          18.0332   21.2005   22.2381   24.4460   36.1692   40.5974   45.8629   49.6404   51.8392   63.1807
   70.6605   73.5498   94.7527  105.8612  118.3581  153.7571
  37  1  -18.0404  -15.4571  -12.2053   -5.6769   -1.7314    6.9893   11.2400   11.3047   13.5895   17.8774
          18.4272   20.7104   21.0829   22.9216   35.4305   39.7908   45.5452   50.8905   55.6063   62.9969
   69.7794   77.1231   94.6518  109.6201  142.6187  161.7281
  38  1  -17.4281  -16.1425  -12.2925   -5.2588   -2.2129    6.9521   11.1553   11.6662   13.8865   17.7719
          18.6332   20.7363   20.9789   22.3511   35.2719   39.6363   45.4960   51.1782   56.5558   62.9287
   69.3734   77.8922   94.6348  110.2220  150.7801  166.3406
  39  1  -18.7109  -14.6408  -12.0358   -6.2897   -0.9897    7.0522   10.5167   11.5731   13.1354   17.6757
          18.1908   20.7614   21.6203   23.6298   35.7707   40.1316   45.6764   50.3172   53.9245   63.0920
   70.2601   75.6958   94.7231  108.2670  129.8563  157.6344
  40  1  -19.8640  -13.4172  -11.0156   -7.5064    0.5426    6.1747    9.8283   12.1424   12.5876   15.9740
          18.1653   21.7828   22.5743   25.5415   36.1215   40.1487   44.5501   50.2422   51.3109   61.2031
   70.8711   71.1121   88.7304  103.0170  118.9713  148.7904
  41  1  -20.7205  -12.5501   -9.6699   -8.4617    1.8791    4.7129   10.2940   11.2130   13.3234   13.6377
          19.5253   22.6805   22.6904   28.1591   33.8948   40.3316   44.6129   50.7281   51.2667   57.1975
   65.0310   72.4669   80.9591   98.8475  125.1783  145.3352
  42  1  -21.3214  -11.5724   -9.1445   -8.9084    3.0684    4.2577   10.3105   10.3206   11.7862   13.3191
          21.7876   22.2824   23.0421   31.0923   31.6735   42.3799   45.8859   50.0284   51.0295   54.8729
   60.3115   73.9219   77.3761   96.4934  133.4494  140.1564
  43  1  -21.6570  -10.6133   -9.5301   -8.9171    3.9107    4.9649    8.3052    9.9720   11.7636   13.1032
          21.3298   23.0136   24.3078   29.9454   34.9270   45.1305   46.2090   48.7261   48.9654   56.8490
   58.3499   72.5983   79.3752   94.3407  111.8182  145.5934
  44  1  -21.7239  -10.2931   -9.6070   -9.0581    4.1027    5.5183    7.4463    9.9021   11.8308   13.0384
          21.1575   22.9872   24.8893   29.6695   36.0455   46.0846   46.1839   48.0219   48.1541   58.0963
   58.8020   71.6658   82.2133   90.4806  103.2727  147.6287
  45  1  -21.5220  -11.0784   -9.3731   -8.8219    3.5479    4.4767    9.3654   10.1147   11.6838   13.2116
          21.6380   23.0761   23.3009   30.4614   33.2160   43.7677   46.1563   49.4780   50.1412   55.2115
   58.9699   73.5933   77.7107   95.7372  125.3971  141.9206
  46  1  -21.0524  -12.0779   -9.1844   -8.8348    2.4933    4.3292   10.4112   10.8061   12.5284   13.3857
          20.6814   22.4579   22.9633   29.6709   32.5017   41.1212   45.2617   50.4440   51.4209   55.6609
   62.3260   73.3347   78.6333   97.5026  129.9350  143.5750
  47  1  -20.3212  -13.0077  -10.2875   -8.0095    1.2122    5.3374   10.0580   11.6598   13.0836   14.8273
          18.6496   22.3318   22.7306   26.7817   35.1834   39.9751   44.1615   50.8642   51.0342   59.1218
   67.8748   71.7327   84.2201  100.7450  121.2810  146.1418
  48  1  -19.3431  -13.8258  -11.7542   -6.9317   -0.1691    7.1398    9.5984   11.9586   12.5979   17.0398
          18.0332   21.2005   22.2381   24.4460   36.1692   40.5974   45.8629   49.6404   51.8392   63.1807
   70.6605   73.5498   94.7527  105.8613  118.3581  153.7571
  49  1  -18.1508  -14.7024  -13.0364   -5.6734   -1.5937    9.2287    9.2876   10.7148   13.2252   18.4546
          18.8020   19.8923   21.2914   22.6209   35.3536   41.9369   48.4913   49.3183   53.6209   65.7569
   69.9027   77.8620  111.5335  116.4280  121.5665  172.7245
  50  1  -16.9002  -15.8461  -13.5856   -4.5335   -2.7975    9.1178   10.0840   10.8862   13.1233   18.8580
          19.1418   20.4013   20.4070   21.1805   34.8609   42.8257   47.8438   50.9829   55.2811   66.6332
   69.0055   79.8853  115.2431  121.3754  150.6480  191.4248
  51  1  -17.5073  -15.2575  -13.4183   -5.0463   -2.2617    9.1663   10.2244   10.2947   13.2569   18.8210
          19.0706   19.8294   20.7961   21.8391   35.0395   42.5210   48.0547   50.4739   54.6119   66.2799
   69.4256   79.2213  113.9950  120.5435  136.3741  183.7649
  52  1  -18.7736  -14.2196  -12.4719   -6.3268   -0.8674    8.1916    9.4203   11.2798   12.9904   18.0076
          18.1684   20.4899   21.7986   23.4633   35.8440   41.2880   47.7667   48.9924   52.5352   64.7179
   70.2561   75.9976  103.6529  109.0658  119.1263  162.1496
  53  1  -19.5391  -14.4783  -10.2039   -7.2047   -0.1235    4.4729   11.8095   12.9424   13.4809   15.3764
          18.5278   21.3356   21.7946   26.8089   33.1370   37.1972   42.9064   53.5605   54.2094   57.9721
   70.4796   71.0865   82.0302  100.3881  135.5974  143.7499
  54  1  -20.2568  -13.5752   -9.5359   -7.9622    0.9423    3.9722   11.5151   12.9231   13.2112   13.7378
          19.8783   21.0586   22.4478   30.0513   30.2051   37.8759   44.1196   52.0037   54.1413   56.5217
   66.5983   72.3646   79.2693   98.4306  137.0022  141.1716
  55  1  -20.7205  -12.5501   -9.6699   -8.4617    1.8791    4.7129   10.2940   11.2130   13.3234   13.6377
          19.5253   22.6805   22.6904   28.1591   33.8948   40.3316   44.6129   50.7281   51.2667   57.1975
   65.0310   72.4669   80.9591   98.8475  125.1783  145.3352
  56  1  -20.9202  -11.7002  -10.2091   -8.6789    2.3906    6.2501    8.1059   10.9147   12.9713   13.9582
          19.0820   22.6497   23.9172   27.3550   36.5264   43.1025   45.7536   47.9247   48.2718   60.8883
   64.7723   71.3796   88.2728   96.1295  107.1413  147.6919
  57  1  -20.8531  -12.0607   -9.9455   -8.6044    2.2076    5.4479    9.1297   11.0015   13.1033   13.8400
          19.2419   22.6925   23.4736   27.6057   35.5263   41.8348   45.0225   49.3958   49.5323   59.0386
   64.8248   71.9416   83.8208   98.7418  114.8893  146.8988
  58  1  -20.5199  -13.0728   -9.5054   -8.2412    1.4353    4.1827   11.1586   11.8508   13.3714   13.5649
          19.8706   21.7233   22.6571   28.9668   31.9678   38.9191   44.3749   51.5690   52.9834   56.3416
   65.5155   72.6872   79.4620   98.5581  133.0886  143.0553
  59  1  -19.9264  -14.0533   -9.7670   -7.6054    0.4027    4.0569   11.7748   12.8763   13.7559   14.2561
          19.1953   21.1261   22.2115   28.3809   31.5053   37.2416   43.5214   52.6634   54.5445   57.1440
   68.2494   71.7740   80.1987   99.0186  136.7492  141.6837
  60  1  -19.0878  -14.8636  -10.7841   -6.7311   -0.6727    5.1228   11.6660   12.9076   13.1775   16.3752
          18.2077   21.3947   21.4266   25.3661   34.5594   37.6333   42.5819   53.4011   54.5809   59.1243
   70.5645   72.7939   84.6577  102.8029  136.0640  146.9632
  61  1  -18.0404  -15.4571  -12.2053   -5.6769   -1.7314    6.9893   11.2400   11.3047   13.5895   17.8774
          18.4272   20.7104   21.0829   22.9216   35.4305   39.7908   45.5452   50.8905   55.6063   62.9969
   69.7794   77.1231   94.6518  109.6201  142.6188  161.7281
  62  1  -16.9002  -15.8461  -13.5856   -4.5335   -2.7975    9.1178   10.0840   10.8862   13.1233   18.8580
          19.1418   20.4013   20.4070   21.1805   34.8609   42.8257   47.8438   50.9829   55.2811   66.6332
   69.0055   79.8853  115.2431  121.3754  150.6482  191.4248
  63  1  -16.4460  -15.9979  -14.0210   -4.0022   -3.3032    9.8133   10.0433   10.6019   12.7331   19.3636
          19.5272   20.0102   20.0357   20.8622   34.7257   44.4202   46.2666   53.0966   54.5171   67.5969
   68.5024   80.4747  116.5245  138.7116  149.1093  203.8620
  64  1  -17.4744  -15.6591  -12.9403   -5.1252   -2.2423    8.0783   10.5910   11.0365   13.5019   18.3951
          18.7505   20.5159   20.7846   21.9237   35.1712   41.2707   48.3999   49.3863   55.5557   65.0190
   69.4211   78.7823  105.4131  112.8983  147.2518  175.1621
  65  1  -18.5908  -15.1806  -11.4758   -6.2346   -1.1869    6.0010   11.4365   12.1098   13.4656   17.2273
          18.2133   20.9745   21.3131   24.0704   35.4576   38.5683   43.4431   52.2298   55.2749   60.7968
   70.1130   75.1400   88.5400  105.9671  138.4296  152.5255
  66  1  -18.9672  -15.4642   -9.9349   -6.6999   -0.9467    3.7735   12.5834   14.1647   14.3860   15.1391
          18.5916   20.3281   21.4459   28.7713   29.7380   35.4226   42.7246   53.5818   56.7990   58.1874
   70.4176   70.9911   80.7303   98.3168  137.8551  147.1303
  67  1  -19.5391  -14.4783  -10.2039   -7.2047   -0.1235    4.4729   11.8095   12.9424   13.4809   15.3764
          18.5278   21.3356   21.7946   26.8089   33.1370   37.1972   42.9064   53.5605   54.2094   57.9721
   70.4796   71.0865   82.0302  100.3881  135.5974  143.7498
  68  1  -19.8640  -13.4172  -11.0156   -7.5064    0.5426    6.1747    9.8283   12.1424   12.5876   15.9740
          18.1653   21.7828   22.5743   25.5415   36.1215   40.1487   44.5501   50.2422   51.3109   61.2031
   70.8711   71.1121   88.7304  103.0170  118.9713  148.7903
  69  1  -19.9291  -13.0258  -11.3730   -7.5668    0.7015    7.1562    8.7436   12.0320   12.3558   16.1265
          18.0842   21.7399   22.8684   25.3029   36.6091   41.2838   46.1000   48.8603   49.8034   62.9507
   70.8526   70.9946   94.9421  101.4597  111.4101  150.6642
  70  1  -19.7323  -13.9421  -10.5748   -7.3789    0.2452    5.2170   10.9633   12.3949   12.9958   15.6893
          18.3320   21.8669   22.0192   26.0152   34.8757   38.6185   43.3258   52.2016   52.8131   59.1565
   70.6538   71.2231   84.5160  102.0281  128.4289  146.0874
  71  1  -19.2798  -14.9964   -9.9699   -6.9639   -0.5475    3.9554   12.3133   13.7735   13.9237   15.0708
          18.6936   20.6543   21.7104   27.8319   31.1659   36.0592   42.7969   53.6212   55.8567   57.8498
   70.4813   70.8229   80.8683   99.0213  138.2536  144.5053
  72  1  -18.5949  -15.8836  -10.1056   -6.3815   -1.3429    3.8862   12.7173   14.0644   14.4183   15.7517
          18.3373   20.3417   21.2725   27.4075   30.9069   35.2969   42.2595   54.2906   56.8357   58.3750
   70.0659   72.0097   81.3991   98.8007  137.7439  150.4148
  73  1  -17.7821  -16.4520  -10.9996   -5.7515   -1.9304    5.0185   12.4049   12.7614   14.4567   16.8110
          18.3004   20.6039   21.0266   24.4792   34.2123   36.7154   41.7612   54.6994   57.4433   58.3666
   69.4808   75.1210   84.8511  103.3167  142.3029  157.4431
  74  1  -17.4281  -16.1425  -12.2925   -5.2588   -2.2129    6.9521   11.1553   11.6662   13.8865   17.7719
          18.6332   20.7363   20.9789   22.3511   35.2719   39.6363   45.4960   51.1782   56.5558   62.9287
   69.3735   77.8922   94.6348  110.2220  150.7802  166.3406
  75  1  -17.5073  -15.2575  -13.4183   -5.0463   -2.2617    9.1663   10.2244   10.2947   13.2569   18.8210
          19.0706   19.8294   20.7961   21.8391   35.0395   42.5210   48.0547   50.4739   54.6119   66.2799
   69.4256   79.2213  113.9950  120.5435  136.3741  183.7648
  76  1  -17.4744  -15.6591  -12.9403   -5.1252   -2.2423    8.0783   10.5910   11.0365   13.5019   18.3951
          18.7505   20.5159   20.7846   21.9237   35.1712   41.2707   48.3999   49.3863   55.5557   65.0190
   69.4211   78.7823  105.4131  112.8983  147.2518  175.1620
  77  1  -17.5032  -16.4443  -11.6267   -5.4934   -2.0902    5.9327   11.9069   12.0621   14.2916   17.2619
          18.4563   20.7003   20.9853   23.2907   35.1772   38.0719   43.0370   53.0072   57.2968   60.3734
   69.3475   76.6719   88.4317  106.7592  147.1081  160.9788
  78  1  -18.1950  -16.2163  -10.4790   -6.0783   -1.6524    4.3373   12.6130   13.5394   14.4791   16.3531
          18.2163   20.4989   21.0379   25.8761   32.6725   35.7755   41.8148   55.6823   56.0469   58.3459
   69.6947   73.5319   82.7291  100.4589  139.2682  153.3295
  79  1  -18.1950  -16.2163  -10.4790   -6.0783   -1.6524    4.3373   12.6130   13.5394   14.4791   16.3531
          18.2163   20.4989   21.0379   25.8761   32.6725   35.7755   41.8148   55.6823   56.0469   58.3459
   69.6947   73.5319   82.7291  100.4589  139.2682  153.3295
  80  1  -18.5908  -15.1806  -11.4758   -6.2346   -1.1869    6.0010   11.4365   12.1098   13.4656   17.2273
          18.2133   20.9745   21.3131   24.0704   35.4576   38.5683   43.4431   52.2298   55.2749   60.7968
   70.1130   75.1400   88.5400  105.9671  138.4296  152.5254
  81  1  -18.7736  -14.2196  -12.4719   -6.3268   -0.8674    8.1916    9.4203   11.2798   12.9904   18.0076
          18.1684   20.4899   21.7986   23.4633   35.8440   41.2880   47.7667   48.9924   52.5352   64.7179
   70.2561   75.9976  103.6530  109.0658  119.1262  162.1494
  82  1  -18.7109  -14.6408  -12.0358   -6.2897   -0.9897    7.0522   10.5167   11.5731   13.1354   17.6757
          18.1908   20.7614   21.6203   23.6298   35.7707   40.1316   45.6764   50.3172   53.9245   63.0920
   70.2601   75.6958   94.7231  108.2670  129.8563  157.6344
  83  1  -18.4104  -15.7273  -10.9291   -6.1448   -1.4420    5.0531   12.1615   12.8099   13.9443   16.7320
          18.2442   20.8910   21.1311   24.8039   34.3412   37.0221   42.0458   54.2379   56.2269   58.8304
   69.8944   74.3525   84.7959  103.1719  141.0614  151.8333
  84  1  -17.9616  -16.6187  -10.1747   -6.0017   -1.8303    3.8506   12.9359   14.1389   14.7920   16.1176
          18.1642   20.1768   21.0160   27.1471   30.7793   34.9287   41.9773   54.6549   57.3429   58.6200
   69.6483   72.8095   81.7153   98.6005  137.4737  154.7242
  85  1  -17.9616  -16.6187  -10.1747   -6.0017   -1.8303    3.8506   12.9359   14.1389   14.7920   16.1176
          18.1642   20.1768   21.0160   27.1471   30.7793   34.9287   41.9773   54.6549   57.3429   58.6200
   69.6483   72.8095   81.7153   98.6005  137.4737  154.7242
  86  1  -18.4104  -15.7273  -10.9291   -6.1448   -1.4420    5.0531   12.1615   12.8099   13.9443   16.7320
          18.2442   20.8910   21.1311   24.8039   34.3412   37.0221   42.0458   54.2379   56.2269   58.8304
   69.8944   74.3525   84.7959  103.1719  141.0614  151.8333
  87  1  -18.7109  -14.6408  -12.0358   -6.2897   -0.9897    7.0522   10.5167   11.5731   13.1354   17.6757
          18.1908   20.7614   21.6203   23.6298   35.7707   40.1316   45.6764   50.3172   53.9245   63.0920
   70.2601   75.6958   94.7231  108.2670  129.8563  157.6344
  88  1  -18.7736  -14.2196  -12.4719   -6.3268   -0.8674    8.1916    9.4203   11.2798   12.9904   18.0076
          18.1684   20.4899   21.7986   23.4633   35.8440   41.2880   47.7667   48.9924   52.5352   64.7179
   70.2561   75.9976  103.6530  109.0658  119.1262  162.1494
  89  1  -18.5908  -15.1806  -11.4758   -6.2346   -1.1869    6.0010   11.4365   12.1098   13.4656   17.2273
          18.2133   20.9745   21.3131   24.0704   35.4576   38.5683   43.4431   52.2298   55.2749   60.7968
   70.1130   75.1400   88.5400  105.9671  138.4296  152.5254
  90  1  -18.1950  -16.2163  -10.4790   -6.0783   -1.6524    4.3373   12.6130   13.5394   14.4791   16.3531
          18.2163   20.4989   21.0379   25.8761   32.6725   35.7755   41.8148   55.6823   56.0469   58.3459
   69.6947   73.5319   82.7291  100.4589  139.2682  153.3295
  91  1  -17.8562  -16.7805  -10.0712   -5.9967   -1.8682    3.7036   13.0239   14.3713   14.9005   16.0823
          18.1092   20.0857   20.9125   28.1973   29.5734   34.6567   42.1844   54.1636   57.8265   58.7758
   69.6024   72.5639   81.3946   97.8811  136.9564  154.5603
siesta: Fermi energy =      -3.652676 eV

siesta: Program's energy decomposition (eV):
siesta: Ebs     =      -101.823023
siesta: Eions   =       524.139309
siesta: Ena     =       116.076595
siesta: Ekin    =       219.366840
siesta: Enl     =       -21.894506
siesta: Eso     =         0.000000
siesta: Eldau   =         0.000000
siesta: DEna    =        -4.311455
siesta: DUscf   =         0.419364
siesta: DUext   =         0.000000
siesta: Exc     =       -95.283578
siesta: eta*DQ  =         0.000000
siesta: Emadel  =         0.000000
siesta: Emeta   =         0.000000
siesta: Emolmec =         0.000000
siesta: Ekinion =         0.000000
siesta: Eharris =      -309.766048
siesta: Etot    =      -309.766048
siesta: FreeEng =      -309.766048

siesta: Final energy (eV):
siesta:  Band Struct. =    -101.823023
siesta:       Kinetic =     219.366840
siesta:       Hartree =    1532.753592
siesta:       Eldau   =       0.000000
siesta:       Eso     =       0.000000
siesta:    Ext. field =       0.000000
siesta:   Exch.-corr. =     -95.283578
siesta:  Ion-electron =   -3262.640030
siesta:       Ion-ion =    1296.037127
siesta:       Ekinion =       0.000000
siesta:         Total =    -309.766048
siesta:         Fermi =      -3.652676

siesta: Stress tensor (static) (eV/Ang**3):
siesta:     0.000017    0.000087   -0.000004
siesta:     0.000087    0.000118    0.000002
siesta:    -0.000004    0.000002    0.000030

siesta: Constrained stress tensor (static) (eV/Ang**3):
siesta:     0.000017    0.000087   -0.000004
siesta:     0.000087    0.000118    0.000002
siesta:    -0.000004    0.000002    0.000030

siesta: Cell volume =        106.254548 Ang**3

siesta: Pressure (static):
siesta:                Solid            Molecule  Units
siesta:          -0.00000060         -0.00000081  Ry/Bohr**3
siesta:          -0.00005484         -0.00007465  eV/Ang**3
siesta:          -0.08787142         -0.11959964  kBar
(Free)E+ p_basis*V_orbitals  =        -309.178965
(Free)Eharris+ p_basis*V_orbitals  =        -309.178965

siesta: Electric dipole (a.u.)  =    0.000000   -0.000000   -0.000008
siesta: Electric dipole (Debye) =    0.000000   -0.000000   -0.000020

cite: Please see "graphene.bib" for an exhaustive BiBTeX file.
cite: This calculation has made use of the following articles.
cite: Articles are encouraged to be cited in a published work.
        Primary SIESTA paper
          DOI: www.doi.org/10.1088/0953-8984/14/11/302                                     

>> End of run:  20-APR-2024  14:44:42
Job completed
